<?xml version="1.0"?>
<VTKFile type="UnstructuredGrid"  version="0.1"  >
<UnstructuredGrid>
<Piece  NumberOfPoints="3990" NumberOfCells="7722">
<Points>
<DataArray  type="Float64"  NumberOfComponents="3"  format="ascii">0 1 0  0 0 0  1 0 0  1 1 0  0.5 0 0  1 0.5 0  0.5 1 0  0 0.5 0  0.5 0.5 0  0 0.25 0  0.25 0 0  0.25 1 0  0 0.75 0  1 0.25 0  0.75 0 0  1 0.75 0  0.75 1 0  0.7083333333333333 0.2916666666666667 0  0.2916666666666666 0.7083333333333334 0  0.375 0.25 0  0.75 0.625 0  0.2569444444444444 0.4652777777777778 0  0.5366379310344828 0.7535919540229885 0  0.1875 0.1875 0  0.8125 0.8125 0  0.869047619047619 0.375 0  0.1450441919191919 0.6052714646464646 0  0.375 0.8690476190476191 0  0.5526960784313725 0.1825980392156862 0  0.8385416666666666 0.1614583333333334 0  0.1614583333333333 0.8385416666666667 0  0.6736111111111112 0.4652777777777778 0  0.1367521367521368 0.3477564102564102 0  0.6570970491253563 0.8648656830417855 0  0.5102479397556124 0.3386260301221938 0  0.3654513888888889 0.5737847222222222 0  0.6929750044954185 0.1362784921584263 0  0.388576102743835 0.411911725237599 0  0.6091269841269842 0.5942460317460317 0  0.875 0.6875 0  0.427278890279516 0.119889445139758 0  0.8544456845238095 0.5213913690476191 0  0.125 0 0  0 0.125 0  1 0.875 0  0.875 1 0  0.1280008648150532 0.4769292340226777 0  0.2695382451711197 0.3321750950221553 0  0.7031567235715964 0.7447810921428012 0  0.625 0 0  0.375 0 0  0.125 1 0  0.875 0 0  0 0.375 0  0 0.625 0  1 0.375 0  0.375 1 0  1 0.125 0  0 0.875 0  0.625 1 0  1 0.625 0  0.2979288363930608 0.1201429454643536 0  0.410919540229885 0.7484605911330049 0  0.5325041980395562 0.878905151526474 0  0.4831670727569156 0.6331060043826487 0  0.1735997378973042 0.7204747378973043 0  0.2534919507575758 0.5772372159090909 0  0.2633928571428572 0.8876488095238095 0  0.8199404761904761 0.2730654761904762 0  0.75830270586982 0.3919383189517417 0  0.5750282248382511 0.4237522353023667 0  0.6008360210023379 0.2794828358598495 0  0.08163442644334186 0.6821295860397322 0  0.08333333333333333 0.1875 0  0.2028380815996574 0.08844602719988583 0  0.2766521142611967 0.2325436572164097 0  0.90625 0.78125 0  0.890625 0.890625 0  0.7545696325008384 0.8973565441669461 0  0.5625 0.08086590340834317 0  0.09077380952380953 0.09077380952380952 0  0.4610923478694773 0.209034015149656 0  0.7542527598351648 0.5248380520595106 0  0.6459235536037465 0.3619913988405765 0  0.7560381768882634 0.20506142233852 0  0.07073252688172042 0.8125 0  0.0924753097241701 0.9078102849914793 0  0.9292674731182795 0.1875 0  0.9075246902758297 0.09218971500852073 0  0.8125 0.07073252688172045 0  0.2400955776842301 0.7869705776842302 0  0.9121050213379069 0.2781978201831695 0  0.7916878157143976 0.7239689078571988 0  0.9345238095238094 0.4375 0  0.4375 0.9345238095238095 0  0.3725616989755203 0.6651895248862173 0  0.06536271996350887 0.5625 0  0.9348362560379583 0.5625 0  0.456646798987055 0.8277247094351965 0  0.1875 0.9355758238725954 0  0.6169761231634859 0.6939779188977889 0  0.6226854751147515 0.7827911461419014 0  0.3305695598137626 0.7901697871282585 0  0.5865305325818898 0.5101085479043448 0  0.6622701297028378 0.2177663989757395 0  0.1354166666666667 0.2591702279202279 0  0 0.3125 0  0.2094429575680048 0.3936361846162499 0  0.836666296419157 0.607917407161686 0  0.6875 1 0  0.214261555450504 0.6492551722020035 0  0 0.4375 0  0.07731537126068377 0.40625 0  0.3427725432967068 0.4879566233699599 0  0.3550792513951871 0.3331953632609953 0  0.4462473953896857 0.2887834789342508 0  0.4747801464819794 0.417386052030127 0  0.8229836475148948 0.4443292349237342 0  0.7322605135514757 0.8199240278289671 0  0.6756431877205955 0.5468989748126787 0  0.1968419507215863 0.5194573482612496 0  0.3285590277777778 0.9345238095238095 0  0.8125 1 0  0.4198917601920009 0.5134893045331258 0  0.5232405503206691 0.2595791787880157 0  1 0.9375 0  0.1987510870015086 0.3025185951894431 0  0.5625 1 0  0.6005390654136388 0.9228110509230952 0  0.6411254848194414 0.07704872765442942 0  0.3357233162523242 0.1855113224530532 0  0.6730653396610877 0.6393887462324165 0  0.310966987234063 0.6240019765311626 0  0.7368737836204349 0.07457755202327881 0  0.6192316414418171 0.1485238406378594 0  0.5432429670607106 0.678552703844006 0  0.4754371679695679 0.7103946803120881 0  0.07501324890749672 0.3043839897335739 0  0.5358146975860403 0.5688321463205916 0  0.3115271739500156 0.3982137365971444 0  0.3625191397122174 0.0767854603650549 0  0.5024029442563831 0.1264128223758444 0  0.4375 0 0  0.4699946908887376 0.06379961173775725 0  0.9375 0.71875 0  0.9272105898044465 0.635671179608893 0  0.9375 1 0  0.6690971819568612 0.9331530898202766 0  0.1073454944778885 0.7499206387638554 0  0.8699082999280406 0.2232403652524313 0  0.5773118091863964 0.3548027349159383 0  0.1354166666666667 0.1428571428571428 0  0.3125 0 0  0.8241684193077341 0.9257452995055244 0  0.4352314948354036 0.3586940847489378 0  0.4351301473778832 0.5819726043539077 0  0.8073232928518163 0.3419398170341962 0  0.7775949246947366 0.1298519409204575 0  0.6875 0 0  0.7413513991851041 0.457933324954483 0  0.939453125 0.841796875 0  0.5630355154606987 0.8171875156478349 0  0.9345238095238095 0.3461466592368577 0  0.9375 0 0  1 0.0625 0  0.0625 1 0  0 0.9375 0  0.06552178593177167 0.4969053669623468 0  0.1424866619031703 0.4130277709291224 0  0.1275287182444726 0.5422946908002588 0  0.2637686595586339 0.06413888464529549 0  0.2524263535491086 0.1697437503243817 0  0.7367218397988525 0.6888573970660841 0  0.0625 0 0  0 0.0625 0  0.8463594539285995 0.7578283617857982 0  0.3128751192101563 0.2851997374369947 0  0.4015281788351144 0.1806421385113692 0  0.1910251795116588 0.4553332197174453 0  0.287797471442006 0.5222621440543902 0  0.3962628745986055 0.8097380085535307 0  0.3505895299554843 0.7304878890838692 0  0.5019151500495276 0.9356042615328103 0  0.9374389419410134 0.4999931039076005 0  0.3125 1 0  0.1875 1 0  1 0.5625 0  0.4375 1 0  1 0.3125 0  1 0.4375 0  0.8125 0 0  1 0.1875 0  0.5625 0 0  0.1875 0 0  0 0.1875 0  0 0.5625 0  0 0.6875 0  0 0.8125 0  1 0.6875 0  1 0.8125 0  0.8021696218581627 0.6612893947866073 0  0.06154922295426143 0.6239401126946708 0  0.9359375 0.9359375 0  0.4666158024849896 0.7691515918155014 0  0.2318201265217025 0.7064974250277525 0  0.1565954253579966 0.6635489312486841 0  0.1598132503680848 0.7787147500325552 0  0.3146529991605639 0.8510876378205265 0  0.1461873209418733 0.05982804528877814 0  0.06109554988524315 0.2446551776247686 0  0.8054950308560754 0.5564226538848541 0  0.470541749491976 0.8853316336952531 0  0.6948472567465137 0.4042308563372457 0  0.8802828472348889 0.4658893256343853 0  0.6788075634946739 0.7974194205806069 0  0.2155048659603867 0.2428201584940968 0  0.8131223143423806 0.2132171049028394 0  0.4330798005432235 0.6671274900735726 0  0.6015279126162613 0.2187368078743274 0  0.8061636571464289 0.8703766630361714 0  0.7008230445061776 0.3478568388444072 0  0.8638466246958771 0.3147095987735538 0  0.204801534004265 0.8789209409594009 0  0.2449006736431132 0.9424182882803838 0  0.7611268409371427 0.2643056884799992 0  0.7552800864046191 0.7678006649959446 0  0.5983639638906616 0.864113435029236 0  0.1956559506814437 0.577281203577426 0  0.3527670268164207 0.1320469097565204 0  0.7530364577483248 0.3262386077083089 0  0.4535919187979363 0.4690107087451527 0  0.8824869791666666 0.8336588541666666 0  0.8814453125 0.9451171875 0  0.5582987942628019 0.622421666543858 0  0.6817532446064828 0.6939001801354731 0  0.3830295138888889 0.9450968952922078 0  0.4140603937012541 0.05211333372716105 0  0.5535864501303013 0.3060591985391672 0  0.6560130086346878 0.2729726562211558 0  0.890203140221684 0.5948314305427268 0  0.7043857725999024 0.593980890020804 0  0.5105843922695152 0.8016828014338627 0  0.05365910753708378 0.7315110031682004 0  0.616904573672261 0.4621186633436136 0  0.5338511646455415 0.387875898899613 0  0.5231769258947843 0.4477682463140762 0  0.650302973237622 0.7370722302085519 0  0.3927483139621257 0.4662414504529014 0  0.8034595960585199 0.4972538342758211 0  0.7738337841682438 0.9496376207663251 0  0.7193737507158268 0.954685447650112 0  0.482525916480686 0.5528257169991676 0  0.2533501157346781 0.2809495420003238 0  0.3118487924482243 0.5702930126570319 0  0.6257598847669529 0.4104163315430518 0  0.1354166666666667 0.1955605158730158 0  0.04166666666666666 0.15625 0  0.3956448985530264 0.6174149462065157 0  0.8102897701818546 0.3938784238208349 0  0.2641154190013625 0.8344469561943118 0  0.642852220770013 0.5068794586563659 0  0.05271458179508221 0.355846947336007 0  0.7021551360070266 0.8921457280225779 0  0.5692125776683765 0.1328512638850284 0  0.5206162811937602 0.04865158770992991 0  0.6001838442201555 0.04540556991297563 0  0.2597716608242787 0.4118346398477178 0  0.4040584599473195 0.3179589136784675 0  0.1480337679295207 0.8941560631483065 0  0.1344356707112281 0.9466251177415842 0  0.7114696411829317 0.4983917389078826 0  0.7585704698442475 0.5751926345944629 0  0.2189131956390871 0.04022068508159698 0  0.2476935455192043 0.1123642267635843 0  0.185995005654517 0.1365524537205238 0  0.6223414373308711 0.643380839165121 0  0.5732602596637543 0.7190051747306219 0  0.268358222364537 0.6586246524467934 0  0.3265879848129173 0.2369791782191225 0  0.1267095595787346 0.7034787238999181 0  0.1115202922226038 0.6421997933884982 0  0.3128688392940203 0.07260997451790079 0  0.550724900485678 0.9253360991633187 0  0.7142608810459105 0.2384904702214873 0  0.7045869185243887 0.1871826897887429 0  0.890625 0.734375 0  0.953125 0.765625 0  0.2111812642821677 0.8286209446459138 0  0.9590293078204457 0.09375 0  0.953431269039847 0.1435719386408004 0  0.04097069217955424 0.90625 0  0.04656873096015299 0.8564280613591996 0  0.1078743037981226 0.8541621766048062 0  0.8921256962018773 0.1458378233951939 0  0.8521576979194619 0.1084496634207678 0  0.8655663982740958 0.05464346096571447 0  0.04005659640905543 0.09375 0  0.1001448316533417 0.04246776244228261 
[...]
<PointData  Vectors="f_1962708-0"> 
<DataArray  type="Float64"  Name="f_1962708-0"  NumberOfComponents="3" format="ascii">0.0000000000000000e+00 0.0000000000000000e+00 0.0000000000000000e+00  0.0000000000000000e+00 0.0000000000000000e+00 0.0000000000000000e+00  0.0000000000000000e+00 0.0000000000000000e+00 0.0000000000000000e+00  0.0000000000000000e+00 0.0000000000000000e+00 0.0000000000000000e+00  0.0000000000000000e+00 0.0000000000000000e+00 0.0000000000000000e+00  0.0000000000000000e+00 0.0000000000000000e+00 0.0000000000000000e+00  1.0000000000000000e+00 0.0000000000000000e+00 0.0000000000000000e+00  0.0000000000000000e+00 0.0000000000000000e+00 0.0000000000000000e+00  -1.3302607069977559e-01 3.1715401089694429e-03 0.0000000000000000e+00  0.0000000000000000e+00 0.0000000000000000e+00 0.0000000000000000e+00  0.0000000000000000e+00 0.0000000000000000e+00 0.0000000000000000e+00  5.6250000000000000e-01 0.0000000000000000e+00 0.0000000000000000e+00  0.0000000000000000e+00 0.0000000000000000e+00 0.0000000000000000e+00  0.0000000000000000e+00 0.0000000000000000e+00 0.0000000000000000e+00  0.0000000000000000e+00 0.0000000000000000e+00 0.0000000000000000e+00  0.0000000000000000e+00 0.0000000000000000e+00 0.0000000000000000e+00  5.6250000000000000e-01 0.0000000000000000e+00 0.0000000000000000e+00  -5.9597863565795987e-02 -4.1146218911680105e-02 0.0000000000000000e+00  -6.3318429238040347e-02 1.7487700267032075e-01 0.0000000000000000e+00  -6.6663711906180978e-02 2.2551388357659963e-02 0.0000000000000000e+00  -8.2400147066384419e-02 -1.6359959195574222e-01 0.0000000000000000e+00  -7.3186047912341262e-02 9.8854794959564646e-02 0.0000000000000000e+00  -6.0415375902483678e-02 -2.9679862916918341e-02 0.0000000000000000e+00  -2.0218961157774613e-02 1.8296548577399561e-02 0.0000000000000000e+00  2.5612665329644577e-03 -2.0882466843904718e-01 0.0000000000000000e+00  -2.2718254902494368e-02 -5.6697639382852633e-02 0.0000000000000000e+00  -3.5111489651178170e-02 1.3997792581450219e-01 0.0000000000000000e+00  1.3599742425351560e-01 1.3076170169679874e-01 0.0000000000000000e+00  -5.8257342993386585e-02 -5.6673406599866000e-03 0.0000000000000000e+00  -1.3822166732902642e-02 -1.2918928328154404e-02 0.0000000000000000e+00  2.0816866424965129e-02 1.8424137319726491e-01 0.0000000000000000e+00  -1.0151199785029638e-01 -8.2856769727665633e-02 0.0000000000000000e+00  -2.1515857288663877e-02 4.8774812628733254e-02 0.0000000000000000e+00  1.2375891485132520e-01 -1.4513208340794120e-01 0.0000000000000000e+00  -9.9518254787491878e-02 -2.3163312463572367e-03 0.0000000000000000e+00  -1.1621980085991321e-01 9.9445986642893586e-02 0.0000000000000000e+00  -3.2436747737872168e-02 -1.0397794772454911e-02 0.0000000000000000e+00  -1.0434767398540502e-01 4.8849554072416541e-02 0.0000000000000000e+00  -1.2675703218358897e-01 -8.1467067188123785e-02 0.0000000000000000e+00  -3.0710020581274672e-02 -1.6959245300829245e-01 0.0000000000000000e+00  -4.0017535299690002e-02 3.9117864255791279e-03 0.0000000000000000e+00  -3.7734238034749790e-02 -1.1365282649250627e-01 0.0000000000000000e+00  0.0000000000000000e+00 0.0000000000000000e+00 0.0000000000000000e+00  0.0000000000000000e+00 0.0000000000000000e+00 0.0000000000000000e+00  0.0000000000000000e+00 0.0000000000000000e+00 0.0000000000000000e+00  1.9140625000000000e-01 0.0000000000000000e+00 0.0000000000000000e+00  -2.5783668873929771e-02 8.5687496086553960e-02 0.0000000000000000e+00  -5.8873934497785045e-02 5.3604713225475192e-02 0.0000000000000000e+00  -5.3302748375226673e-02 -1.7690764239123893e-01 0.0000000000000000e+00  0.0000000000000000e+00 0.0000000000000000e+00 0.0000000000000000e+00  0.0000000000000000e+00 0.0000000000000000e+00 0.0000000000000000e+00  1.9140625000000000e-01 0.0000000000000000e+00 0.0000000000000000e+00  0.0000000000000000e+00 0.0000000000000000e+00 0.0000000000000000e+00  0.0000000000000000e+00 0.0000000000000000e+00 0.0000000000000000e+00  0.0000000000000000e+00 0.0000000000000000e+00 0.0000000000000000e+00  0.0000000000000000e+00 0.0000000000000000e+00 0.0000000000000000e+00  8.7890625000000000e-01 0.0000000000000000e+00 0.0000000000000000e+00  0.0000000000000000e+00 0.0000000000000000e+00 0.0000000000000000e+00  0.0000000000000000e+00 0.0000000000000000e+00 0.0000000000000000e+00  8.7890625000000000e-01 0.0000000000000000e+00 0.0000000000000000e+00  0.0000000000000000e+00 0.0000000000000000e+00 0.0000000000000000e+00  -2.7483701357695040e-02 8.4639348604289670e-03 0.0000000000000000e+00  -5.6704082984504987e-02 1.0216694618735882e-01 0.0000000000000000e+00  1.8661173837181036e-01 -2.0710510674805449e-02 0.0000000000000000e+00  -1.2884042388696562e-01 2.1628813604910344e-02 0.0000000000000000e+00  -3.1713410262241518e-02 1.8729992283709848e-01 0.0000000000000000e+00  -7.8126366709462186e-02 1.4255779991851233e-01 0.0000000000000000e+00  1.2871561211297278e-01 1.6885919257084847e-01 0.0000000000000000e+00  -2.7944689920089302e-02 -3.6666935512267657e-02 0.0000000000000000e+00  -6.1632206643234391e-02 -7.4824646435836736e-02 0.0000000000000000e+00  -1.1514123009449802e-01 -3.3237393748233354e-02 0.0000000000000000e+00  -7.8027403710678220e-02 -2.2028508232033447e-02 0.0000000000000000e+00  -1.2824733658238404e-02 1.1975682570972473e-01 0.0000000000000000e+00  -4.7156864165903197e-03 9.4663038521902738e-03 0.0000000000000000e+00  -1.1040156187047795e-02 4.7709427505665467e-03 0.0000000000000000e+00  -4.4419799528871401e-02 2.8265607366468971e-02 0.0000000000000000e+00  -1.0713949289439945e-02 -1.6753715152043558e-01 0.0000000000000000e+00  4.1219604905372735e-02 -1.6516550372793104e-01 0.0000000000000000e+00  1.6234211166331494e-01 -1.6704743360357732e-01 0.0000000000000000e+00  -2.9203615185284262e-02 -1.5847229064736281e-03 0.0000000000000000e+00  -2.2510744712667683e-03 2.2440866610859982e-03 0.0000000000000000e+00  -6.5535750997143427e-02 5.8332168778820939e-03 0.0000000000000000e+00  -7.9948516276400941e-02 -1.2496065451693969e-01 0.0000000000000000e+00  -8.8907310227869213e-02 -4.7236945111841080e-02 0.0000000000000000e+00  -3.4025479499811960e-02 -2.3359893497889792e-02 0.0000000000000000e+00  -1.9973367399022269e-03 1.2737750344249008e-01 0.0000000000000000e+00  3.4216747151029514e-02 1.2051949638354890e-01 0.0000000000000000e+00  -3.5510730098588473e-03 -8.2006403692739070e-03 0.0000000000000000e+00  -2.4425950324996094e-03 -2.4270264187480723e-03 0.0000000000000000e+00  -7.6959068397205940e-03 -3.0508244239140468e-03 0.0000000000000000e+00  -6.6635049001648686e-03 1.9900891161244513e-01 0.0000000000000000e+00  -8.1434515976701993e-03 -2.3115455800650393e-02 0.0000000000000000e+00  -4.7854696853086541e-02 -2.0170897444344360e-01 0.0000000000000000e+00  -7.7922708256695280e-03 -4.6020271698887817e-02 0.0000000000000000e+00  4.2376048771852670e-01 5.3747975955885131e-02 0.0000000000000000e+00  -1.0155499382038947e-01 1.1838381257741838e-01 0.0000000000000000e+00  -8.9844377594730258e-03 7.2471266484313068e-02 0.0000000000000000e+00  -1.0307248637562791e-02 -7.7545673815554855e-02 0.0000000000000000e+00  5.1129182615430355e-02 6.2192752583629760e-02 0.0000000000000000e+00  1.5773669869768742e-01 1.2422539181524685e-01 0.0000000000000000e+00  -9.8686639875839852e-02 -1.0554422544102951e-01 0.0000000000000000e+00  -2.4037705916306377e-02 -1.2047471968997164e-01 0.0000000000000000e+00  -4.7753445183173447e-03 1.6728860715641977e-01 0.0000000000000000e+00  -1.2826289076750114e-01 -5.1612046107075364e-02 0.0000000000000000e+00  -5.4379265694668111e-02 -2.1296681989365903e-02 0.0000000000000000e+00  -1.5893757634369773e-02 2.7539786347058410e-02 0.0000000000000000e+00  0.0000000000000000e+00 0.0000000000000000e+00 0.0000000000000000e+00  -4.8005439801140005e-02 7.3796466830668109e-02 0.0000000000000000e+00  -4.8462564729928687e-02 -1.5588225731023006e-01 0.0000000000000000e+00  7.3852539062500000e-01 0.0000000000000000e+00 0.0000000000000000e+00  -5.7740395825212072e-02 1.7232486437701935e-01 0.0000000000000000e+00  0.0000000000000000e+00 0.0000000000000000e+00 0.0000000000000000e+00  -9.0937700978750841e-03 4.3478558027837649e-02 0.0000000000000000e+00  -1.0506090934212876e-01 8.5405596945682380e-02 0.0000000000000000e+00  -8.1003751310514946e-02 4.1564705283700626e-02 0.0000000000000000e+00  -8.4597026476299630e-02 1.3791421762997772e-02 0.0000000000000000e+00  -1.1717753438515671e-01 1.3514708801302372e-02 0.0000000000000000e+00  -4.4209876741062235e-02 -9.0912069528541167e-02 0.0000000000000000e+00  2.4706283630562067e-02 -1.9226003121316296e-01 0.0000000000000000e+00  -1.1005786204365098e-01 -1.0891626168045894e-01 0.0000000000000000e+00  -5.4006597076747438e-02 1.2007271300320067e-01 0.0000000000000000e+00  3.2410408627759640e-01 1.1326698378134781e-01 0.0000000000000000e+00  3.7133789062500000e-01 0.0000000000000000e+00 0.0000000000000000e+00  -1.2652302783573105e-01 5.3910934712092233e-02 0.0000000000000000e+00  -7.9320136580118397e-02 -4.2896464010071921e-03 0.0000000000000000e+00  0.0000000000000000e+00 0.0000000000000000e+00 0.0000000000000000e+00  -3.4815026734753972e-02 4.5023763601927912e-02 0.0000000000000000e+00  9.6899414062500000e-01 0.0000000000000000e+00 0.0000000000000000e+00  3.5669674694125425e-01 -7.8151927884419811e-02 0.0000000000000000e+00  -2.3724536413522564e-02 -3.0269018020283220e-03 0.0000000000000000e+00  -4.6405755833423205e-02 1.6366648645087040e-02 0.0000000000000000e+00  -1.0527978178122825e-01 -1.3518057676258183e-01 0.0000000000000000e+00  -9.4909277608355880e-02 1.4238055875679292e-01 0.0000000000000000e+00  -1.4994006063351977e-02 -3.7260795121578307e-03 0.0000000000000000e+00  -4.4192669212729137e-02 -8.5972988852318875e-03 0.0000000000000000e+00  -1.1365426306242152e-01 -3.4865681132928816e-02 0.0000000000000000e+00  -9.4407655198119639e-02 3.4601612792570603e-02 0.0000000000000000e+00  -6.4079072995994954e-03 2.3542321786641021e-02 0.0000000000000000e+00  -1.3695107910864188e-01 -2.2972450742018233e-02 0.0000000000000000e+00  -8.2143920770739814e-02 6.7487757364646253e-02 0.0000000000000000e+00  -2.3672662486583017e-02 2.9824772387886519e-03 0.0000000000000000e+00  -4.4124082180306223e-02 -2.6953812716094385e-05 0.0000000000000000e+00  0.0000000000000000e+00 0.0000000000000000e+00 0.0000000000000000e+00  -2.4401256661002940e-02 5.4364125091347867e-04 0.0000000000000000e+00  -1.0548759084886500e-02 -1.1988740604571524e-01 0.0000000000000000e+00  -1.3830170508635695e-02 -1.0776803951953963e-01 0.0000000000000000e+00  5.4931640625000000e-02 0.0000000000000000e+00 0.0000000000000000e+00  3.5610855398601760e-01 -1.1489753394226369e-01 0.0000000000000000e+00  -1.3396190073838953e-02 1.5819664513878615e-01 0.0000000000000000e+00  -1.3163342603104125e-02 -2.0506336603388076e-02 0.0000000000000000e+00  -9.9162171546350736e-02 -2.5538896842826019e-02 0.0000000000000000e+00  -8.6458852361893813e-03 8.7334310173590550e-03 0.0000000000000000e+00  0.0000000000000000e+00 0.0000000000000000e+00 0.0000000000000000e+00  1.6036975841626760e-01 -1.3444617651943039e-01 0.0000000000000000e+00  -1.0033072834649064e-01 2.3870583259685618e-02 0.0000000000000000e+00  -1.3096617494888996e-01 5.5365387055056621e-02 0.0000000000000000e+00  -3.8829920303127499e-02 -5.7124351456527542e-02 0.0000000000000000e+00  -1.9249806888947559e-02 -1.0150125379317497e-02 0.0000000000000000e+00  0.0000000000000000e+00 0.0000000000000000e+00 0.0000000000000000e+00  -7.7360872501800973e-02 -9.7076966277928445e-02 0.0000000000000000e+00  2.5064735991322390e-03 -1.2983161955997263e-01 0.0000000000000000e+00  2.7442653516898723e-02 -5.9112019582564720e-02 0.0000000000000000e+00  -5.9591037753891438e-03 -2.8159456220585244e-02 0.0000000000000000e+00  0.0000000000000000e+00 0.0000000000000000e+00 0.0000000000000000e+00  0.0000000000000000e+00 0.0000000000000000e+00 0.0000000000000000e+00  5.4931640625000000e-02 0.0000000000000000e+00 0.0000000000000000e+00  0.0000000000000000e+00 0.0000000000000000e+00 0.0000000000000000e+00  -8.1802854434366717e-03 5.6904672142579042e-02 0.0000000000000000e+00  -2.7178013406684381e-02 6.9413277686920571e-02 0.0000000000000000e+00  -2.8000892817594297e-02 1.0846277027983597e-01 0.0000000000000000e+00  -1.2849022442928671e-02 2.7899449903023227e-03 0.0000000000000000e+00  -2.9505514246136559e-02 1.6483090543687157e-02 0.0000000000000000e+00  -7.4157074990304023e-02 -1.8058658018950749e-01 0.0000000000000000e+00  0.0000000000000000e+00 0.0000000000000000e+00 0.0000000000000000e+00  0.0000000000000000e+00 0.0000000000000000e+00 0.0000000000000000e+00  -2.5242386762658445e-02 -2.0145232356645534e-01 0.0000000000000000e+00  -6.1935485237445534e-02 3.7446917199650785e-02 0.0000000000000000e+00  -5.3796434657173542e-02 1.0536364469097736e-02 0.0000000000000000e+00  -4.7284200275005496e-02 9.4274609603165693e-02 0.0000000000000000e+00  -8.9828862242574276e-02 1.1460359011246742e-01 0.0000000000000000e+00  1.9886031202119864e-02 1.2038213135552857e-01 0.0000000000000000e+00  -6.2261905591089808e-02 1.4760332824807504e-01 0.0000000000000000e+00  4.5735507691802024e-01 8.2381781772755194e-03 0.0000000000000000e+00  -8.3839431237823416e-03 -5.8652037625005926e-02 0.0000000000000000e+00  7.3852539062500000e-01 0.0000000000000000e+00 0.0000000000000000e+00  3.7133789062500000e-01 0.0000000000000000e+00 0.0000000000000000e+00  0.0000000000000000e+00 0.0000000000000000e+00 0.0000000000000000e+00  9.6899414062499989e-01 0.0000000000000000e+00 0.0000000000000000e+00  0.0000000000000000e+00 0.0000000000000000e+00 0.0000000000000000e+00  0.0000000000000000e+00 0.0000000000000000e+00 0.0000000000000000e+00  0.0000000000000000e+00 0.0000000000000000e+00 0.0000000000000000e+00  0.0000000000000000e+00 0.0000000000000000e+00 0.0000000000000000e+00  0.0000000000000000e+00 0.0000000000000000e+00 0.0000000000000000e+00  0.0000000000000000e+00 0.0000000000000000e+00 0.0000000000000000e+00  0.0000000000000000e+00 0.0000000000000000e+00 0.0000000000000000e+00  0.0000000000000000e+00 0.0000000000000000e+00 0.0000000000000000e+00  0.0000000000000000e+00 0.0000000000000000e+00 0.0000000000000000e+00  0.0000000000000000e+00 0.0000000000000000e+00 0.0000000000000000e+00  0.0000000000000000e+00 0.0000000000000000e+00 0.0000000000000000e+00  0.0000000000000000e+00 0.0000000000000000e+00 0.0000000000000000e+00  -5.9033147441111225e-02 -1.8259388045839681e-01 0.0000000000000000e+00  -8.3774501865330562e-03 8.3811934602598184e-02 0.0000000000000000e+00  3.9955248193714536e-02 -8.8211325839503960e-02 0.0000000000000000e+00  -4.0434795495312030e-02 4.8483131269598065e-02 0.0000000000000000e+00  -4.9622137833446628e-02 1.8919205937086048e-01 0.0000000000000000e+00  -3.6325935627661968e-02 1.6555678783280148e-01 0.0000000000000000e+00  -1.1198932411122124e-02 1.9068618491485312e-01 0.0000000000000000e+00  8.1842389329975201e-02 1.6982343996789673e-01 0.0000000000000000e+00  -3.7102110187337183e-03 1.7618283146030819e-03 0.0000000000000000e+00  -3.4836767958425076e-03 1.2318326172543437e-02 0.0000000000000000e+00  -6.0532863808382319e-02 -1.3969620765843446e-01 0.0000000000000000e+00  2.0817669635382885e-01 4.4408662714876306e-02 0.0000000000000000e+00  -8.4450938172080839e-02 -7.0309584381709034e-02 0.0000000000000000e+00  -2.4575078499165438e-02 -8.2236349391765454e-02 0.0000000000000000e+00  -3.0269160824023277e-03 -1.6603896082609290e-01 0.0000000000000000e+00  -3.2196792108139437e-02 3.0826621839793792e-02 0.0000000000000000e+00  -2.3334997913256210e-02 -2.3555587032761550e-02 0.0000000000000000e+00  -1.1250403281936167e-01 7.0197146966324897e-02 0.0000000000000000e+00  -6.3310534461847257e-02 -1.4594357234715076e-02 0.0000000000000000e+00  7.4043573831786710e-02 -1.8607704455635171e-01 0.0000000000000000e+00  -7.2148122391621175e-02 -5.5018226578318938e-02 0.0000000000000000e+00  -2.0218338484734998e-02 -4.1266199705467708e-02 0.0000000000000000e+00  7.9542285821452147e-02 1.7473195435410632e-01 0.0000000000000000e+00  2.4921181443401408e-01 1.1855922282662815e-01 0.0000000000000000e+00  -4.1737749922300081e-02 -3.6815217119051315e-02 0.0000000000000000e+00  -3.0624312311424748e-02 -2.0190505395845715e-01 0.0000000000000000e+00  1.3223586102832405e-01 -9.4283463874150319e-02 0.0000000000000000e+00  -5.5118153298258192e-02 1.4329737854004002e-01 0.0000000000000000e+00  -3.6737839468256574e-02 8.3571371489179914e-03 0.0000000000000000e+00  -5.3319637767340042e-02 -5.3578571861968044e-02 0.0000000000000000e+00  -1.2538508080193880e-01 2.8452572058523619e-02 0.0000000000000000e+00  6.5063707406856561e-03 -1.8685971326267767e-01 0.0000000000000000e+00  1.1667971306788158e-01 -1.0914839600874832e-01 0.0000000000000000e+00  -1.3026457926897900e-01 -4.5057350804818715e-02 0.0000000000000000e+00  -8.6215932954876867e-02 -1.5439101713547473e-01 0.0000000000000000e+00  4.4018531883098960e-01 7.7178901741411843e-02 0.0000000000000000e+00  -1.8998495650845059e-02 9.8358643051021780e-04 0.0000000000000000e+00  -8.9539638123049214e-02 -1.3782609794074993e-02 0.0000000000000000e+00  -6.7425404877927919e-02 -3.0598811052578223e-02 0.0000000000000000e+00  -2.6411877389072125e-02 -1.2513100442829556e-01 0.0000000000000000e+00  -1.0086861226429410e-01 -1.3716550260195506e-01 0.0000000000000000e+00  2.2348477455513519e-03 9.3111634285844526e-04 0.0000000000000000e+00  -5.5058497420141387e-03 9.6784394330769602e-02 0.0000000000000000e+00  -1.1552718578794932e-01 -5.8868697375677348e-02 0.0000000000000000e+00  -1.1075956578134558e-01 -1.2389689797631840e-02 0.0000000000000000e+00  -1.2421548844178568e-01 -9.8682664255625874e-03 0.0000000000000000e+00  -6.6614452734354679e-02 -1.3986705814411438e-01 0.0000000000000000e+00  -1.1497208387396880e-01 5.8646446423947618e-02 0.0000000000000000e+00  -5.7124557034978041e-02 -1.1474403347085645e-01 0.0000000000000000e+00  2.8581967497520006e-01 -1.1095934394480438e-01 0.0000000000000000e+00  3.9149927756468167e-01 -1.0198770528378442e-01 0.0000000000000000e+00  -1.3660038907181893e-01 1.7163798093956833e-02 0.0000000000000000e+00  -4.6613061400336941e-02 4.0394984089305336e-02 0.0000000000000000e+00  -9.9708481346308567e-02 1.2405053446203565e-01 0.0000000000000000e+00  -1.0365043709047479e-01 -5.1583890133754549e-02 0.0000000000000000e+00  -1.2017028742357341e-02 1.6009220200084232e-02 0.0000000000000000e+00  -1.0037535499823535e-03 2.9310545898144796e-03 0.0000000000000000e+00  -1.1943351800914906e-01 9.0930420692484332e-02 0.0000000000000000e+00  -4.3652880637303333e-02 -7.4046903364850994e-02 0.0000000000000000e+00  4.4473840631933069e-02 1.8979041144199715e-01 0.0000000000000000e+00  -1.1605050193987070e-01 -8.1760416531373614e-02 0.0000000000000000e+00  -3.8733912886525852e-03 2.3741280978628217e-02 0.0000000000000000e+00  1.8036959321724841e-01 -1.5973835808207534e-01 0.0000000000000000e+00  -4.4041753179164547e-02 -4.2759786685090213e-03 0.0000000000000000e+00  -1.9291935441152739e-02 -1.9393839951433676e-04 0.0000000000000000e+00  -1.6404898986250534e-02 -8.4483949973169429e-04 0.0000000000000000e+00  -6.7579972613714109e-02 7.9464537579731029e-02 0.0000000000000000e+00  -8.6669416055992723e-02 2.7428934247792840e-02 0.0000000000000000e+00  6.0681138621918936e-02 1.5370954007236218e-01 0.0000000000000000e+00  1.1450993304236151e-01 1.0099610159509934e-01 0.0000000000000000e+00  -9.3622291551519646e-02 -1.0574382174937060e-01 0.0000000000000000e+00  -8.0813145707473402e-02 -1.4598323895482881e-01 0.0000000000000000e+00  -5.7760910611672194e-03 1.1190711764760997e-03 0.0000000000000000e+00  -1.9636736399060373e-02 7.8462061847840020e-03 0.0000000000000000e+00  -1.4625740917949027e-02 1.0161579819746089e-02 0.0000000000000000e+00  -1.1640417099142693e-01 -1.0100710143802381e-01 0.0000000000000000e+00  -8.8597788380123652e-02 -6.7271289026597500e-02 0.0000000000000000e+00  -7.4192502265843160e-02 1.6878204689556411e-01 0.0000000000000000e+00  -5.5426329590924875e-02 2.5942295564650608e-02 0.0000000000000000e+00  -2.3325394995012693e-02 1.6224943962107982e-01 0.000000000000000