<?xml version="1.0"?>
<VTKFile type="UnstructuredGrid"  version="0.1"  >
<UnstructuredGrid>
<Piece  NumberOfPoints="4299" NumberOfCells="8340">
<Points>
<DataArray  type="Float64"  NumberOfComponents="3"  format="ascii">0 1 0  0 0 0  1 0 0  1 1 0  0.5 0 0  1 0.5 0  0.5 1 0  0 0.5 0  0.5 0.5 0  0 0.25 0  0.25 0 0  0.25 1 0  0 0.75 0  1 0.25 0  0.75 0 0  1 0.75 0  0.75 1 0  0.7083333333333333 0.2916666666666667 0  0.2916666666666666 0.7083333333333334 0  0.375 0.25 0  0.75 0.625 0  0.2569444444444444 0.4652777777777778 0  0.5366379310344828 0.7535919540229885 0  0.1875 0.1875 0  0.8125 0.8125 0  0.869047619047619 0.375 0  0.1450441919191919 0.6052714646464646 0  0.375 0.8690476190476191 0  0.5526960784313725 0.1825980392156862 0  0.8385416666666666 0.1614583333333334 0  0.1614583333333333 0.8385416666666667 0  0.6736111111111112 0.4652777777777778 0  0.1367521367521368 0.3477564102564102 0  0.6570970491253563 0.8648656830417855 0  0.5102479397556124 0.3386260301221938 0  0.3654513888888889 0.5737847222222222 0  0.6929750044954185 0.1362784921584263 0  0.388576102743835 0.411911725237599 0  0.6091269841269842 0.5942460317460317 0  0.875 0.6875 0  0.427278890279516 0.119889445139758 0  0.8544456845238095 0.5213913690476191 0  0.125 0 0  0 0.125 0  1 0.875 0  0.875 1 0  0.1280008648150532 0.4769292340226777 0  0.2695382451711197 0.3321750950221553 0  0.7031567235715964 0.7447810921428012 0  0.625 0 0  0.375 0 0  0.125 1 0  0.875 0 0  0 0.375 0  0 0.625 0  1 0.375 0  0.375 1 0  1 0.125 0  0 0.875 0  0.625 1 0  1 0.625 0  0.2979288363930608 0.1201429454643536 0  0.410919540229885 0.7484605911330049 0  0.5325041980395562 0.878905151526474 0  0.4831670727569156 0.6331060043826487 0  0.1735997378973042 0.7204747378973043 0  0.2534919507575758 0.5772372159090909 0  0.2633928571428572 0.8876488095238095 0  0.8199404761904761 0.2730654761904762 0  0.75830270586982 0.3919383189517417 0  0.5750282248382511 0.4237522353023667 0  0.6008360210023379 0.2794828358598495 0  0.08163442644334186 0.6821295860397322 0  0.08333333333333333 0.1875 0  0.2028380815996574 0.08844602719988583 0  0.2766521142611967 0.2325436572164097 0  0.90625 0.78125 0  0.890625 0.890625 0  0.7545696325008384 0.8973565441669461 0  0.5625 0.08086590340834317 0  0.09077380952380953 0.09077380952380952 0  0.4610923478694773 0.209034015149656 0  0.7542527598351648 0.5248380520595106 0  0.6459235536037465 0.3619913988405765 0  0.7560381768882634 0.20506142233852 0  0.07073252688172042 0.8125 0  0.0924753097241701 0.9078102849914793 0  0.9292674731182795 0.1875 0  0.9075246902758297 0.09218971500852073 0  0.8125 0.07073252688172045 0  0.2400955776842301 0.7869705776842302 0  0.9121050213379069 0.2781978201831695 0  0.7916878157143976 0.7239689078571988 0  0.9345238095238094 0.4375 0  0.4375 0.9345238095238095 0  0.3725616989755203 0.6651895248862173 0  0.06536271996350887 0.5625 0  0.9348362560379583 0.5625 0  0.456646798987055 0.8277247094351965 0  0.1875 0.9355758238725954 0  0.6169761231634859 0.6939779188977889 0  0.6226854751147515 0.7827911461419014 0  0.3305695598137626 0.7901697871282585 0  0.5865305325818898 0.5101085479043448 0  0.6622701297028378 0.2177663989757395 0  0.1354166666666667 0.2591702279202279 0  0 0.3125 0  0.2094429575680048 0.3936361846162499 0  0.836666296419157 0.607917407161686 0  0.6875 1 0  0.214261555450504 0.6492551722020035 0  0 0.4375 0  0.07731537126068377 0.40625 0  0.3427725432967068 0.4879566233699599 0  0.3550792513951871 0.3331953632609953 0  0.4462473953896857 0.2887834789342508 0  0.4747801464819794 0.417386052030127 0  0.8229836475148948 0.4443292349237342 0  0.7322605135514757 0.8199240278289671 0  0.6756431877205955 0.5468989748126787 0  0.1968419507215863 0.5194573482612496 0  0.3285590277777778 0.9345238095238095 0  0.8125 1 0  0.4198917601920009 0.5134893045331258 0  0.5232405503206691 0.2595791787880157 0  1 0.9375 0  0.1987510870015086 0.3025185951894431 0  0.5625 1 0  0.6005390654136388 0.9228110509230952 0  0.6411254848194414 0.07704872765442942 0  0.3357233162523242 0.1855113224530532 0  0.6730653396610877 0.6393887462324165 0  0.310966987234063 0.6240019765311626 0  0.7368737836204349 0.07457755202327881 0  0.6192316414418171 0.1485238406378594 0  0.5432429670607106 0.678552703844006 0  0.4754371679695679 0.7103946803120881 0  0.07501324890749672 0.3043839897335739 0  0.5358146975860403 0.5688321463205916 0  0.3115271739500156 0.3982137365971444 0  0.3625191397122174 0.0767854603650549 0  0.5024029442563831 0.1264128223758444 0  0.4375 0 0  0.4699946908887376 0.06379961173775725 0  0.9375 0.71875 0  0.9272105898044465 0.635671179608893 0  0.9375 1 0  0.6690971819568612 0.9331530898202766 0  0.1073454944778885 0.7499206387638554 0  0.8699082999280406 0.2232403652524313 0  0.5773118091863964 0.3548027349159383 0  0.1354166666666667 0.1428571428571428 0  0.3125 0 0  0.8241684193077341 0.9257452995055244 0  0.4352314948354036 0.3586940847489378 0  0.4351301473778832 0.5819726043539077 0  0.8073232928518163 0.3419398170341962 0  0.7775949246947366 0.1298519409204575 0  0.6875 0 0  0.7413513991851041 0.457933324954483 0  0.939453125 0.841796875 0  0.5630355154606987 0.8171875156478349 0  0.9345238095238095 0.3461466592368577 0  0.9375 0 0  1 0.0625 0  0.0625 1 0  0 0.9375 0  0.06552178593177167 0.4969053669623468 0  0.1424866619031703 0.4130277709291224 0  0.1275287182444726 0.5422946908002588 0  0.2637686595586339 0.06413888464529549 0  0.2524263535491086 0.1697437503243817 0  0.7367218397988525 0.6888573970660841 0  0.0625 0 0  0 0.0625 0  0.8463594539285995 0.7578283617857982 0  0.3128751192101563 0.2851997374369947 0  0.4015281788351144 0.1806421385113692 0  0.1910251795116588 0.4553332197174453 0  0.287797471442006 0.5222621440543902 0  0.3962628745986055 0.8097380085535307 0  0.3505895299554843 0.7304878890838692 0  0.5019151500495276 0.9356042615328103 0  0.9374389419410134 0.4999931039076005 0  0.3125 1 0  0.1875 1 0  1 0.5625 0  0.4375 1 0  1 0.3125 0  1 0.4375 0  0.8125 0 0  1 0.1875 0  0.5625 0 0  0.1875 0 0  0 0.1875 0  0 0.5625 0  0 0.6875 0  0 0.8125 0  1 0.6875 0  1 0.8125 0  0.8021696218581627 0.6612893947866073 0  0.06154922295426143 0.6239401126946708 0  0.9359375 0.9359375 0  0.4666158024849896 0.7691515918155014 0  0.2318201265217025 0.7064974250277525 0  0.1565954253579966 0.6635489312486841 0  0.1598132503680848 0.7787147500325552 0  0.3146529991605639 0.8510876378205265 0  0.1461873209418733 0.05982804528877814 0  0.06109554988524315 0.2446551776247686 0  0.8054950308560754 0.5564226538848541 0  0.470541749491976 0.8853316336952531 0  0.6948472567465137 0.4042308563372457 0  0.8802828472348889 0.4658893256343853 0  0.6788075634946739 0.7974194205806069 0  0.2155048659603867 0.2428201584940968 0  0.8131223143423806 0.2132171049028394 0  0.4330798005432235 0.6671274900735726 0  0.6015279126162613 0.2187368078743274 0  0.8061636571464289 0.8703766630361714 0  0.7008230445061776 0.3478568388444072 0  0.8638466246958771 0.3147095987735538 0  0.204801534004265 0.8789209409594009 0  0.2449006736431132 0.9424182882803838 0  0.7611268409371427 0.2643056884799992 0  0.7552800864046191 0.7678006649959446 0  0.5983639638906616 0.864113435029236 0  0.1956559506814437 0.577281203577426 0  0.3527670268164207 0.1320469097565204 0  0.7530364577483248 0.3262386077083089 0  0.4535919187979363 0.4690107087451527 0  0.8824869791666666 0.8336588541666666 0  0.8814453125 0.9451171875 0  0.5582987942628019 0.622421666543858 0  0.6817532446064828 0.6939001801354731 0  0.3830295138888889 0.9450968952922078 0  0.4140603937012541 0.05211333372716105 0  0.5535864501303013 0.3060591985391672 0  0.6560130086346878 0.2729726562211558 0  0.890203140221684 0.5948314305427268 0  0.7043857725999024 0.593980890020804 0  0.5105843922695152 0.8016828014338627 0  0.05365910753708378 0.7315110031682004 0  0.616904573672261 0.4621186633436136 0  0.5338511646455415 0.387875898899613 0  0.5231769258947843 0.4477682463140762 0  0.650302973237622 0.7370722302085519 0  0.3927483139621257 0.4662414504529014 0  0.8034595960585199 0.4972538342758211 0  0.7738337841682438 0.9496376207663251 0  0.7193737507158268 0.954685447650112 0  0.482525916480686 0.5528257169991676 0  0.2533501157346781 0.2809495420003238 0  0.3118487924482243 0.5702930126570319 0  0.6257598847669529 0.4104163315430518 0  0.1354166666666667 0.1955605158730158 0  0.04166666666666666 0.15625 0  0.3956448985530264 0.6174149462065157 0  0.8102897701818546 0.3938784238208349 0  0.2641154190013625 0.8344469561943118 0  0.642852220770013 0.5068794586563659 0  0.05271458179508221 0.355846947336007 0  0.7021551360070266 0.8921457280225779 0  0.5692125776683765 0.1328512638850284 0  0.5206162811937602 0.04865158770992991 0  0.6001838442201555 0.04540556991297563 0  0.2597716608242787 0.4118346398477178 0  0.4040584599473195 0.3179589136784675 0  0.1480337679295207 0.8941560631483065 0  0.1344356707112281 0.9466251177415842 0  0.7114696411829317 0.4983917389078826 0  0.7585704698442475 0.5751926345944629 0  0.2189131956390871 0.04022068508159698 0  0.2094512238151452 0.1401845482039332 0  0.6223414373308711 0.643380839165121 0  0.5732602596637543 0.7190051747306219 0  0.268358222364537 0.6586246524467934 0  0.3265879848129173 0.2369791782191225 0  0.1267095595787346 0.7034787238999181 0  0.1115202922226038 0.6421997933884982 0  0.3128688392940203 0.07260997451790079 0  0.550724900485678 0.9253360991633187 0  0.7142608810459105 0.2384904702214873 0  0.7045869185243887 0.1871826897887429 0  0.890625 0.734375 0  0.953125 0.765625 0  0.2111812642821677 0.8286209446459138 0  0.9590293078204457 0.09375 0  0.953431269039847 0.1435719386408004 0  0.04097069217955424 0.90625 0  0.04656873096015299 0.8564280613591996 0  0.1078743037981226 0.8541621766048062 0  0.8921256962018773 0.1458378233951939 0  0.8521576979194619 0.1084496634207678 0  0.8655663982740958 0.05464346096571447 0  0.04005659640905543 0.09375 0  0.1001448316533417 0.04246776244228261 0  0.934578184766147 0.05001804220989697
[...]
<PointData  Vectors="f_3269923-0"> 
<DataArray  type="Float64"  Name="f_3269923-0"  NumberOfComponents="3" format="ascii">0.0000000000000000e+00 0.0000000000000000e+00 0.0000000000000000e+00  0.0000000000000000e+00 0.0000000000000000e+00 0.0000000000000000e+00  0.0000000000000000e+00 0.0000000000000000e+00 0.0000000000000000e+00  0.0000000000000000e+00 0.0000000000000000e+00 0.0000000000000000e+00  0.0000000000000000e+00 0.0000000000000000e+00 0.0000000000000000e+00  0.0000000000000000e+00 0.0000000000000000e+00 0.0000000000000000e+00  1.0000000000000000e+00 0.0000000000000000e+00 0.0000000000000000e+00  0.0000000000000000e+00 0.0000000000000000e+00 0.0000000000000000e+00  -1.3108974377935809e-01 2.5581404283463323e-03 0.0000000000000000e+00  0.0000000000000000e+00 0.0000000000000000e+00 0.0000000000000000e+00  0.0000000000000000e+00 0.0000000000000000e+00 0.0000000000000000e+00  5.6250000000000000e-01 0.0000000000000000e+00 0.0000000000000000e+00  0.0000000000000000e+00 0.0000000000000000e+00 0.0000000000000000e+00  0.0000000000000000e+00 0.0000000000000000e+00 0.0000000000000000e+00  0.0000000000000000e+00 0.0000000000000000e+00 0.0000000000000000e+00  0.0000000000000000e+00 0.0000000000000000e+00 0.0000000000000000e+00  5.6250000000000000e-01 0.0000000000000000e+00 0.0000000000000000e+00  -5.8832638871945675e-02 -4.0726219112064067e-02 0.0000000000000000e+00  -6.3476067098698782e-02 1.7270610087090932e-01 0.0000000000000000e+00  -6.6047983282803355e-02 2.2301548309986732e-02 0.0000000000000000e+00  -8.0864471834494980e-02 -1.6094429917492012e-01 0.0000000000000000e+00  -7.2611454366494507e-02 9.7879350390622191e-02 0.0000000000000000e+00  -5.8575255720484616e-02 -3.1631805124486503e-02 0.0000000000000000e+00  -2.0041761154542200e-02 1.8133453916648470e-02 0.0000000000000000e+00  1.3838340398055363e-03 -2.0537323332136398e-01 0.0000000000000000e+00  -2.2373231595397197e-02 -5.5949633702502742e-02 0.0000000000000000e+00  -3.5011567326720235e-02 1.3896340031183338e-01 0.0000000000000000e+00  1.3292018065303751e-01 1.2819216176354969e-01 0.0000000000000000e+00  -5.7654516350135979e-02 -5.6483840719444914e-03 0.0000000000000000e+00  -1.3652686313621439e-02 -1.2766212653361588e-02 0.0000000000000000e+00  2.0506046731168841e-02 1.8364830269750310e-01 0.0000000000000000e+00  -9.9804662885664003e-02 -8.1965396394920301e-02 0.0000000000000000e+00  -2.1352066271870373e-02 4.8361893580898430e-02 0.0000000000000000e+00  1.2214651419390822e-01 -1.3922913354663904e-01 0.0000000000000000e+00  -9.8363529994784676e-02 -2.4614304717584913e-03 0.0000000000000000e+00  -1.1507736728538717e-01 9.7718269625097193e-02 0.0000000000000000e+00  -3.2071016675386491e-02 -1.0298425432152428e-02 0.0000000000000000e+00  -1.0325642536094180e-01 4.8137424981689242e-02 0.0000000000000000e+00  -1.2416875216958233e-01 -8.0873168845559479e-02 0.0000000000000000e+00  -3.0500102043429358e-02 -1.6699088727983905e-01 0.0000000000000000e+00  -3.9636078124265769e-02 3.8642209907038170e-03 0.0000000000000000e+00  -3.7084044175398852e-02 -1.1196989174914294e-01 0.0000000000000000e+00  0.0000000000000000e+00 0.0000000000000000e+00 0.0000000000000000e+00  0.0000000000000000e+00 0.0000000000000000e+00 0.0000000000000000e+00  0.0000000000000000e+00 0.0000000000000000e+00 0.0000000000000000e+00  1.9140625000000000e-01 0.0000000000000000e+00 0.0000000000000000e+00  -2.5625265537133988e-02 8.5007616993733590e-02 0.0000000000000000e+00  -5.8375018912452697e-02 5.3099133887372481e-02 0.0000000000000000e+00  -5.2410584548711420e-02 -1.7310754492547445e-01 0.0000000000000000e+00  0.0000000000000000e+00 0.0000000000000000e+00 0.0000000000000000e+00  0.0000000000000000e+00 0.0000000000000000e+00 0.0000000000000000e+00  1.9140625000000000e-01 0.0000000000000000e+00 0.0000000000000000e+00  0.0000000000000000e+00 0.0000000000000000e+00 0.0000000000000000e+00  0.0000000000000000e+00 0.0000000000000000e+00 0.0000000000000000e+00  0.0000000000000000e+00 0.0000000000000000e+00 0.0000000000000000e+00  0.0000000000000000e+00 0.0000000000000000e+00 0.0000000000000000e+00  8.7890625000000000e-01 0.0000000000000000e+00 0.0000000000000000e+00  0.0000000000000000e+00 0.0000000000000000e+00 0.0000000000000000e+00  0.0000000000000000e+00 0.0000000000000000e+00 0.0000000000000000e+00  8.7890625000000000e-01 0.0000000000000000e+00 0.0000000000000000e+00  0.0000000000000000e+00 0.0000000000000000e+00 0.0000000000000000e+00  -2.7230805244615849e-02 8.3861244501775515e-03 0.0000000000000000e+00  -5.6846945042865825e-02 9.8644770896231623e-02 0.0000000000000000e+00  1.8306393549732472e-01 -2.6672920887978874e-02 0.0000000000000000e+00  -1.2672994270332372e-01 1.9934667056050064e-02 0.0000000000000000e+00  -3.1879448037336645e-02 1.8610481275193866e-01 0.0000000000000000e+00  -7.7672301713466063e-02 1.4109776587139056e-01 0.0000000000000000e+00  1.2738702115402542e-01 1.6817404916081072e-01 0.0000000000000000e+00  -2.7577796693942603e-02 -3.6230398174647085e-02 0.0000000000000000e+00  -6.0688483718279292e-02 -7.3922049962647535e-02 0.0000000000000000e+00  -1.1348156968597786e-01 -3.3135804818521873e-02 0.0000000000000000e+00  -7.7112014895694081e-02 -2.1884510063246279e-02 0.0000000000000000e+00  -1.2838241163514211e-02 1.1909525243285735e-01 0.0000000000000000e+00  -4.6726960375001224e-03 9.3740024617658766e-03 0.0000000000000000e+00  -1.0932679590998872e-02 4.7274209102515724e-03 0.0000000000000000e+00  -4.4035687742123138e-02 2.8005887921478474e-02 0.0000000000000000e+00  -1.1055665808781357e-02 -1.6556293765323990e-01 0.0000000000000000e+00  4.1101520478229854e-02 -1.6358433785896156e-01 0.0000000000000000e+00  1.5807120390506169e-01 -1.6365737856092974e-01 0.0000000000000000e+00  -2.8900264335279771e-02 -1.5762796240455744e-03 0.0000000000000000e+00  -2.2265029496181879e-03 2.2198671286956426e-03 0.0000000000000000e+00  -6.4896663787576345e-02 5.7332994767071987e-03 0.0000000000000000e+00  -7.8485507681916172e-02 -1.2320691767908677e-01 0.0000000000000000e+00  -8.7683176518704331e-02 -4.6823936331833321e-02 0.0000000000000000e+00  -3.3616033139032782e-02 -2.3109399823154190e-02 0.0000000000000000e+00  -1.9719387547709744e-03 1.2691930542581792e-01 0.0000000000000000e+00  3.4200340693908399e-02 1.2009611051765287e-01 0.0000000000000000e+00  -3.5063181287681095e-03 -8.0956820694369751e-03 0.0000000000000000e+00  -2.4107970194264072e-03 -2.3954227366378166e-03 0.0000000000000000e+00  -7.5999615177220620e-03 -3.0153574173103922e-03 0.0000000000000000e+00  -7.3927463097423051e-03 1.9753938870808321e-01 0.0000000000000000e+00  -8.0344203244864364e-03 -2.2820712066575769e-02 0.0000000000000000e+00  -4.7605245326505626e-02 -1.9810371373173175e-01 0.0000000000000000e+00  -7.6648718168359862e-03 -4.5368336031964759e-02 0.0000000000000000e+00  4.1883773668987540e-01 5.2338708441719888e-02 0.0000000000000000e+00  -1.0082653886817658e-01 1.1587138947741860e-01 0.0000000000000000e+00  -8.9502852700183277e-03 7.1967918908255282e-02 0.0000000000000000e+00  -1.0144883760863661e-02 -7.6369573749314690e-02 0.0000000000000000e+00  4.8864312665159573e-02 5.7210184294807939e-02 0.0000000000000000e+00  1.5756082012692352e-01 1.2457646597210871e-01 0.0000000000000000e+00  -9.6138054463461159e-02 -1.0441356802131878e-01 0.0000000000000000e+00  -2.2450243895454022e-02 -1.1831676219637745e-01 0.0000000000000000e+00  -6.0387472821227996e-03 1.6468796118916859e-01 0.0000000000000000e+00  -1.2607508896768263e-01 -5.1411512695402617e-02 0.0000000000000000e+00  -5.3753667999163167e-02 -2.1107649929304445e-02 0.0000000000000000e+00  -1.5762504139185181e-02 2.7296903833050622e-02 0.0000000000000000e+00  0.0000000000000000e+00 0.0000000000000000e+00 0.0000000000000000e+00  -4.7632158168261961e-02 7.3145870455225540e-02 0.0000000000000000e+00  -4.7692747407430347e-02 -1.5341796667635629e-01 0.0000000000000000e+00  7.3852539062500000e-01 0.0000000000000000e+00 0.0000000000000000e+00  -5.7647318415181323e-02 1.7084685415378936e-01 0.0000000000000000e+00  0.0000000000000000e+00 0.0000000000000000e+00 0.0000000000000000e+00  -9.0304862690538893e-03 4.3121206444528354e-02 0.0000000000000000e+00  -1.0404800206498045e-01 8.4251061636768057e-02 0.0000000000000000e+00  -8.0242734757080672e-02 4.1090169024824534e-02 0.0000000000000000e+00  -8.3739047620959725e-02 1.3562171702791668e-02 0.0000000000000000e+00  -1.1573188737010209e-01 1.3057172760305864e-02 0.0000000000000000e+00  -4.3476431029787370e-02 -8.9675742022957819e-02 0.0000000000000000e+00  2.3071234784427391e-02 -1.8734976884580959e-01 0.0000000000000000e+00  -1.0794313550406516e-01 -1.0759059112288344e-01 0.0000000000000000e+00  -5.3678500159691105e-02 1.1903836397057363e-01 0.0000000000000000e+00  3.2258394495598797e-01 1.1235548327169625e-01 0.0000000000000000e+00  3.7133789062500000e-01 0.0000000000000000e+00 0.0000000000000000e+00  -1.2499161803516587e-01 5.2741159184478699e-02 0.0000000000000000e+00  -7.8472784864315678e-02 -4.3320229372107374e-03 0.0000000000000000e+00  0.0000000000000000e+00 0.0000000000000000e+00 0.0000000000000000e+00  -3.4534341203525470e-02 4.4631319506883239e-02 0.0000000000000000e+00  9.6899414062499989e-01 0.0000000000000000e+00 0.0000000000000000e+00  3.4898740208371132e-01 -7.7415961820377133e-02 0.0000000000000000e+00  -2.3464780726237977e-02 -3.0009243058771950e-03 0.0000000000000000e+00  -4.5988369871459947e-02 1.6207307283903533e-02 0.0000000000000000e+00  -1.0300331447585688e-01 -1.3320197303480133e-01 0.0000000000000000e+00  -9.4337400920159034e-02 1.4042943371709030e-01 0.0000000000000000e+00  -1.4817946274283240e-02 -3.6874506952258223e-03 0.0000000000000000e+00  -4.3717781320280334e-02 -8.5305954727775274e-03 0.0000000000000000e+00  -1.1112238320230490e-01 -3.5856002077222490e-02 0.0000000000000000e+00  -9.2925640160403361e-02 3.1839849084656230e-02 0.0000000000000000e+00  -6.3570628387042494e-03 2.3333547940276228e-02 0.0000000000000000e+00  -1.3455374266324566e-01 -2.3507816502995431e-02 0.0000000000000000e+00  -8.1405823563795984e-02 6.6755710401727258e-02 0.0000000000000000e+00  -2.3447387544702075e-02 2.9529429202214117e-03 0.0000000000000000e+00  -4.3686290728520885e-02 -4.3362146770232858e-05 0.0000000000000000e+00  0.0000000000000000e+00 0.0000000000000000e+00 0.0000000000000000e+00  -2.4159333094106759e-02 5.3459150541273321e-04 0.0000000000000000e+00  -1.0534735610528296e-02 -1.1827308882114630e-01 0.0000000000000000e+00  -1.3676130554540512e-02 -1.0614454235741114e-01 0.0000000000000000e+00  5.4931640625000000e-02 0.0000000000000000e+00 0.0000000000000000e+00  3.4770810688769765e-01 -1.0697917797204495e-01 0.0000000000000000e+00  -1.3484288063039815e-02 1.5744834175733963e-01 0.0000000000000000e+00  -1.2996381928719875e-02 -2.0255451787217618e-02 0.0000000000000000e+00  -9.7891276906752367e-02 -2.5433338849914354e-02 0.0000000000000000e+00  -8.5644017658928883e-03 8.6509070772262248e-03 0.0000000000000000e+00  0.0000000000000000e+00 0.0000000000000000e+00 0.0000000000000000e+00  1.5826337680563368e-01 -1.3314110479049279e-01 0.0000000000000000e+00  -9.9250642825497712e-02 2.3456975743431006e-02 0.0000000000000000e+00  -1.2924895923101287e-01 5.3748777096346873e-02 0.0000000000000000e+00  -3.8272531369410792e-02 -5.6423661009572752e-02 0.0000000000000000e+00  -1.9021007953597107e-02 -1.0038629677512463e-02 0.0000000000000000e+00  0.0000000000000000e+00 0.0000000000000000e+00 0.0000000000000000e+00  -7.6052591453842286e-02 -9.5850691963121848e-02 0.0000000000000000e+00  2.2811109315451520e-03 -1.2883711992930985e-01 0.0000000000000000e+00  2.8413226805912104e-02 -6.0659326428188561e-02 0.0000000000000000e+00  -5.8727788770767181e-03 -2.7784393185875146e-02 0.0000000000000000e+00  0.0000000000000000e+00 0.0000000000000000e+00 0.0000000000000000e+00  0.0000000000000000e+00 0.0000000000000000e+00 0.0000000000000000e+00  5.4931640625000000e-02 0.0000000000000000e+00 0.0000000000000000e+00  0.0000000000000000e+00 0.0000000000000000e+00 0.0000000000000000e+00  -8.1367605858669988e-03 5.6473319169290909e-02 0.0000000000000000e+00  -2.6984080997943579e-02 6.8839633277206755e-02 0.0000000000000000e+00  -2.7870697542882045e-02 1.0764475503392353e-01 0.0000000000000000e+00  -1.2724450972951206e-02 2.7645446042137930e-03 0.0000000000000000e+00  -2.9243858355368385e-02 1.6335304970712825e-02 0.0000000000000000e+00  -7.2911376215158502e-02 -1.7728906929158370e-01 0.0000000000000000e+00  0.0000000000000000e+00 0.0000000000000000e+00 0.0000000000000000e+00  0.0000000000000000e+00 0.0000000000000000e+00 0.0000000000000000e+00  -2.5603746390301572e-02 -1.9837487463070183e-01 0.0000000000000000e+00  -6.1389360844332476e-02 3.7076432956629053e-02 0.0000000000000000e+00  -5.3295582158720024e-02 1.0416110330439935e-02 0.0000000000000000e+00  -4.6952038309950199e-02 9.3464145200613746e-02 0.0000000000000000e+00  -8.9119183093952128e-02 1.1330657817410278e-01 0.0000000000000000e+00  1.7981320734327906e-02 1.1665220159927821e-01 0.0000000000000000e+00  -6.2518350448216381e-02 1.4476453208049692e-01 0.0000000000000000e+00  4.4461358164357095e-01 2.4635066287618484e-03 0.0000000000000000e+00  -8.2438222872274342e-03 -5.7784254466854479e-02 0.0000000000000000e+00  7.3852539062500000e-01 0.0000000000000000e+00 0.0000000000000000e+00  3.7133789062500000e-01 0.0000000000000000e+00 0.0000000000000000e+00  0.0000000000000000e+00 0.0000000000000000e+00 0.0000000000000000e+00  9.6899414062500000e-01 0.0000000000000000e+00 0.0000000000000000e+00  0.0000000000000000e+00 0.0000000000000000e+00 0.0000000000000000e+00  0.0000000000000000e+00 0.0000000000000000e+00 0.0000000000000000e+00  0.0000000000000000e+00 0.0000000000000000e+00 0.0000000000000000e+00  0.0000000000000000e+00 0.0000000000000000e+00 0.0000000000000000e+00  0.0000000000000000e+00 0.0000000000000000e+00 0.0000000000000000e+00  0.0000000000000000e+00 0.0000000000000000e+00 0.0000000000000000e+00  0.0000000000000000e+00 0.0000000000000000e+00 0.0000000000000000e+00  0.0000000000000000e+00 0.0000000000000000e+00 0.0000000000000000e+00  0.0000000000000000e+00 0.0000000000000000e+00 0.0000000000000000e+00  0.0000000000000000e+00 0.0000000000000000e+00 0.0000000000000000e+00  0.0000000000000000e+00 0.0000000000000000e+00 0.0000000000000000e+00  0.0000000000000000e+00 0.0000000000000000e+00 0.0000000000000000e+00  -5.8207842928904394e-02 -1.7953174669868571e-01 0.0000000000000000e+00  -8.3655813292615542e-03 8.3291015859955880e-02 0.0000000000000000e+00  4.0517876266678091e-02 -8.8252649953442494e-02 0.0000000000000000e+00  -4.0259952247458819e-02 4.4597506344109049e-02 0.0000000000000000e+00  -4.9795033607550512e-02 1.8755010466782165e-01 0.0000000000000000e+00  -3.6322132971726033e-02 1.6442437890517236e-01 0.0000000000000000e+00  -1.1463467136140828e-02 1.8975280697434282e-01 0.0000000000000000e+00  7.9949987568772807e-02 1.6802409763752352e-01 0.0000000000000000e+00  -3.6699064322778742e-03 1.7446465373042173e-03 0.0000000000000000e+00  -3.4541410622019042e-03 1.2202657911832991e-02 0.0000000000000000e+00  -5.9454111003616424e-02 -1.3758283126424570e-01 0.0000000000000000e+00  2.0225909133127559e-01 3.8547856636433168e-02 0.0000000000000000e+00  -8.3160296451198337e-02 -6.9551363498492766e-02 0.0000000000000000e+00  -2.4161553309071691e-02 -8.1062272369184535e-02 0.0000000000000000e+00  -2.8957109961939404e-03 -1.6155501956928042e-01 0.0000000000000000e+00  -3.1925301340532834e-02 3.0554757231192234e-02 0.0000000000000000e+00  -2.3045659302940627e-02 -2.3283400331160473e-02 0.0000000000000000e+00  -1.1114203506882533e-01 6.7681102142610042e-02 0.0000000000000000e+00  -6.2613462732589650e-02 -1.4495624521229988e-02 0.0000000000000000e+00  7.1974875298837532e-02 -1.8303093533259562e-01 0.0000000000000000e+00  -7.1143418116318302e-02 -5.4444619179409057e-02 0.0000000000000000e+00  -1.9936630361179850e-02 -4.0745455807774188e-02 0.0000000000000000e+00  7.8929288586915169e-02 1.7439251436095352e-01 0.0000000000000000e+00  2.4832958044356684e-01 1.1890923003730174e-01 0.0000000000000000e+00  -4.1206197642623517e-02 -3.6408677004853264e-02 0.0000000000000000e+00  -3.0936335153739024e-02 -1.9772917824044839e-01 0.0000000000000000e+00  1.3194680239527157e-01 -9.3102162828112789e-02 0.0000000000000000e+00  -5.4868266199208843e-02 1.4208927685506367e-01 0.0000000000000000e+00  -3.6399449415003955e-02 8.2747985286471971e-03 0.0000000000000000e+00  -5.2584133379789330e-02 -5.2971842725198413e-02 0.0000000000000000e+00  -1.2379790626792996e-01 2.7689168173220854e-02 0.0000000000000000e+00  5.5232340779502072e-03 -1.8496075528580239e-01 0.0000000000000000e+00  1.1555815827798485e-01 -1.0947936284842200e-01 0.0000000000000000e+00  -1.2762481204455975e-01 -4.5430237172795672e-02 0.0000000000000000e+00  -8.4315939312704549e-02 -1.5166620820773663e-01 0.0000000000000000e+00  4.3764745175098868e-01 7.6190470626636447e-02 0.0000000000000000e+00  -1.8813485738983577e-02 9.7248977044859760e-04 0.0000000000000000e+00  -8.8499569640564685e-02 -1.3765113957543533e-02 0.0000000000000000e+00  -6.6607195621878529e-02 -3.0329774475530390e-02 0.0000000000000000e+00  -2.6016254957117551e-02 -1.2320315384074169e-01 0.0000000000000000e+00  -9.8846909533905195e-02 -1.3517857565434621e-01 0.0000000000000000e+00  2.4362493807131209e-03 -2.9450544957317758e-03 0.0000000000000000e+00  -5.5127817278751903e-03 9.6337577138732852e-02 0.0000000000000000e+00  -1.1366539557758644e-01 -5.8425906651608468e-02 0.0000000000000000e+00  -1.0933279281041397e-01 -1.2499549913783877e-02 0.0000000000000000e+00  -1.2247765723873591e-01 -1.0142394047127041e-02 0.0000000000000000e+00  -6.4754684001801011e-02 -1.3728959980732561e-01 0.0000000000000000e+00  -1.1371245477737518e-01 5.7678995652781735e-02 0.0000000000000000e+00  -5.6126802914258658e-02 -1.1311834954691387e-01 0.0000000000000000e+00  2.8265937034632205e-01 -1.1079815955181387e-01 0.0000000000000000e+00  3.8594829467846226e-01 -9.8370501765286597e-02 0.0000000000000000e+00  -1.3455296455283330e-01 1.6121202050099932e-02 0.0000000000000000e+00  -4.6220156312983068e-02 4.0028633316293229e-02 0.0000000000000000e+00  -9.8932119201579793e-02 1.2242387033936725e-01 0.0000000000000000e+00  -1.0211866205560059e-01 -5.1173838634545006e-02 0.0000000000000000e+00  -1.1911444613712931e-02 1.5862882977751812e-02 0.0000000000000000e+00  -9.9381252376178715e-04 2.8987102211208435e-03 0.0000000000000000e+00  -1.1816563591692646e-01 8.8844589848002781e-02 0.0000000000000000e+00  -4.2975774966323675e-02 -7.3096218190237566e-02 0.0000000000000000e+00  4.3260775437416285e-02 1.8844482846981778e-01 0.0000000000000000e+00  -1.1398477785699385e-01 -8.0965356339075020e-02 0.0000000000000000e+00  -3.8443486762339213e-03 2.3536365754886504e-02 0.0000000000000000e+00  1.7599622539187404e-01 -1.5289640101869345e-01 0.0000000000000000e+00  -4.3585751661068976e-02 -4.2525189102569734e-03 0.0000000000000000e+00  -1.9094459842237791e-02 -1.9475044141696430e-04 0.0000000000000000e+00  -1.6228233657159145e-02 -8.3848198922851971e-04 0.0000000000000000e+00  -6.7023984378897478e-02 7.8697558379932780e-02 0.0000000000000000e+00  -8.5810819519293743e-02 2.7062050641883339e-02 0.0000000000000000e+00  6.0650528204062679e-02 1.5350570272621605e-01 0.0000000000000000e+00  1.1390953841722273e-01 1.0068221348697395e-01 0.0000000000000000e+00  -9.1946543311031609e-02 -1.0441551372751312e-01 0.0000000000000000e+00  -7.9298878997446476e-02 -1.4377512558136704e-01 0.0000000000000000e+00  -5.7168635941825295e-03 1.1089344137820978e-03 0.0000000000000000e+00  -1.8219481198440468e-02 1.1186641295432285e-02 0.0000000000000000e+00  -1.1376889257440997e-01 -9.9997665625536150e-02 0.0000000000000000e+00  -8.6106090883311448e-02 -6.7557961118739476e-02 0.0000000000000000e+00  -7.4018413594434382e-02 1.6692483467437658e-01 0.0000000000000000e+00  -5.4933582973524256e-02 2.5687379155546995e-02 0.0000000000000000e+00  -2.3381505276647861e-02 1.6131975658018549e-01 0.0000000000000000e+00  -2.2607026162397226e-02 1.3290618351677880e-01 0.00000000000000