<?xml version="1.0"?>
<VTKFile type="UnstructuredGrid"  version="0.1"  >
<UnstructuredGrid>
<Piece  NumberOfPoints="3711" NumberOfCells="7164">
<Points>
<DataArray  type="Float64"  NumberOfComponents="3"  format="ascii">0 1 0  0 0 0  1 0 0  1 1 0  0.5 0 0  1 0.5 0  0.5 1 0  0 0.5 0  0.5 0.5 0  0 0.25 0  0.25 0 0  0.25 1 0  0 0.75 0  1 0.25 0  0.75 0 0  1 0.75 0  0.75 1 0  0.7083333333333333 0.2916666666666667 0  0.2916666666666666 0.7083333333333334 0  0.375 0.25 0  0.75 0.625 0  0.2569444444444444 0.4652777777777778 0  0.5366379310344828 0.7535919540229885 0  0.1875 0.1875 0  0.8125 0.8125 0  0.869047619047619 0.375 0  0.1450441919191919 0.6052714646464646 0  0.375 0.8690476190476191 0  0.5526960784313725 0.1825980392156862 0  0.8385416666666666 0.1614583333333334 0  0.1614583333333333 0.8385416666666667 0  0.6736111111111112 0.4652777777777778 0  0.1367521367521368 0.3477564102564102 0  0.6570970491253563 0.8648656830417855 0  0.5102479397556124 0.3386260301221938 0  0.3654513888888889 0.5737847222222222 0  0.6929750044954185 0.1362784921584263 0  0.388576102743835 0.411911725237599 0  0.6091269841269842 0.5942460317460317 0  0.875 0.6875 0  0.427278890279516 0.119889445139758 0  0.8544456845238095 0.5213913690476191 0  0.125 0 0  0 0.125 0  1 0.875 0  0.875 1 0  0.1280008648150532 0.4769292340226777 0  0.2695382451711197 0.3321750950221553 0  0.7031567235715964 0.7447810921428012 0  0.625 0 0  0.375 0 0  0.125 1 0  0.875 0 0  0 0.375 0  0 0.625 0  1 0.375 0  0.375 1 0  1 0.125 0  0 0.875 0  0.625 1 0  1 0.625 0  0.2979288363930608 0.1201429454643536 0  0.410919540229885 0.7484605911330049 0  0.5325041980395562 0.878905151526474 0  0.4831670727569156 0.6331060043826487 0  0.1735997378973042 0.7204747378973043 0  0.2534919507575758 0.5772372159090909 0  0.2633928571428572 0.8876488095238095 0  0.8199404761904761 0.2730654761904762 0  0.75830270586982 0.3919383189517417 0  0.5750282248382511 0.4237522353023667 0  0.6008360210023379 0.2794828358598495 0  0.08163442644334186 0.6821295860397322 0  0.08333333333333333 0.1875 0  0.2028380815996574 0.08844602719988583 0  0.2766521142611967 0.2325436572164097 0  0.90625 0.78125 0  0.890625 0.890625 0  0.7545696325008384 0.8973565441669461 0  0.5625 0.08086590340834317 0  0.09077380952380953 0.09077380952380952 0  0.4610923478694773 0.209034015149656 0  0.7542527598351648 0.5248380520595106 0  0.6459235536037465 0.3619913988405765 0  0.7560381768882634 0.20506142233852 0  0.07073252688172042 0.8125 0  0.0924753097241701 0.9078102849914793 0  0.9292674731182795 0.1875 0  0.9075246902758297 0.09218971500852073 0  0.8125 0.07073252688172045 0  0.2400955776842301 0.7869705776842302 0  0.9121050213379069 0.2781978201831695 0  0.7916878157143976 0.7239689078571988 0  0.9345238095238094 0.4375 0  0.4375 0.9345238095238095 0  0.3725616989755203 0.6651895248862173 0  0.06536271996350887 0.5625 0  0.9348362560379583 0.5625 0  0.456646798987055 0.8277247094351965 0  0.1875 0.9355758238725954 0  0.6169761231634859 0.6939779188977889 0  0.6226854751147515 0.7827911461419014 0  0.3305695598137626 0.7901697871282585 0  0.5865305325818898 0.5101085479043448 0  0.6622701297028378 0.2177663989757395 0  0.1354166666666667 0.2591702279202279 0  0 0.3125 0  0.2094429575680048 0.3936361846162499 0  0.836666296419157 0.607917407161686 0  0.6875 1 0  0.214261555450504 0.6492551722020035 0  0 0.4375 0  0.07731537126068377 0.40625 0  0.3427725432967068 0.4879566233699599 0  0.3550792513951871 0.3331953632609953 0  0.4462473953896857 0.2887834789342508 0  0.4747801464819794 0.417386052030127 0  0.8229836475148948 0.4443292349237342 0  0.7322605135514757 0.8199240278289671 0  0.6756431877205955 0.5468989748126787 0  0.1968419507215863 0.5194573482612496 0  0.3285590277777778 0.9345238095238095 0  0.8125 1 0  0.4198917601920009 0.5134893045331258 0  0.5232405503206691 0.2595791787880157 0  1 0.9375 0  0.1987510870015086 0.3025185951894431 0  0.5625 1 0  0.6005390654136388 0.9228110509230952 0  0.6411254848194414 0.07704872765442942 0  0.3357233162523242 0.1855113224530532 0  0.6730653396610877 0.6393887462324165 0  0.310966987234063 0.6240019765311626 0  0.7368737836204349 0.07457755202327881 0  0.6192316414418171 0.1485238406378594 0  0.5432429670607106 0.678552703844006 0  0.4754371679695679 0.7103946803120881 0  0.07501324890749672 0.3043839897335739 0  0.5358146975860403 0.5688321463205916 0  0.3115271739500156 0.3982137365971444 0  0.3625191397122174 0.0767854603650549 0  0.5024029442563831 0.1264128223758444 0  0.4375 0 0  0.4699946908887376 0.06379961173775725 0  0.9375 0.71875 0  0.9272105898044465 0.635671179608893 0  0.9375 1 0  0.6690971819568612 0.9331530898202766 0  0.1073454944778885 0.7499206387638554 0  0.8699082999280406 0.2232403652524313 0  0.5773118091863964 0.3548027349159383 0  0.1354166666666667 0.1428571428571428 0  0.3125 0 0  0.8241684193077341 0.9257452995055244 0  0.4352314948354036 0.3586940847489378 0  0.4351301473778832 0.5819726043539077 0  0.8073232928518163 0.3419398170341962 0  0.7775949246947366 0.1298519409204575 0  0.6875 0 0  0.7413513991851041 0.457933324954483 0  0.939453125 0.841796875 0  0.5630355154606987 0.8171875156478349 0  0.9345238095238095 0.3461466592368577 0  0.9375 0 0  1 0.0625 0  0.0625 1 0  0 0.9375 0  0.06552178593177167 0.4969053669623468 0  0.1424866619031703 0.4130277709291224 0  0.1275287182444726 0.5422946908002588 0  0.2637686595586339 0.06413888464529549 0  0.2524263535491086 0.1697437503243817 0  0.7367218397988525 0.6888573970660841 0  0.0625 0 0  0 0.0625 0  0.8463594539285995 0.7578283617857982 0  0.3128751192101563 0.2851997374369947 0  0.4015281788351144 0.1806421385113692 0  0.1910251795116588 0.4553332197174453 0  0.287797471442006 0.5222621440543902 0  0.3962628745986055 0.8097380085535307 0  0.3505895299554843 0.7304878890838692 0  0.5019151500495276 0.9356042615328103 0  0.9374389419410134 0.4999931039076005 0  0.3125 1 0  0.1875 1 0  1 0.5625 0  0.4375 1 0  1 0.3125 0  1 0.4375 0  0.8125 0 0  1 0.1875 0  0.5625 0 0  0.1875 0 0  0 0.1875 0  0 0.5625 0  0 0.6875 0  0 0.8125 0  1 0.6875 0  1 0.8125 0  0.8021696218581627 0.6612893947866073 0  0.06154922295426143 0.6239401126946708 0  0.9359375 0.9359375 0  0.4666158024849896 0.7691515918155014 0  0.2318201265217025 0.7064974250277525 0  0.1565954253579966 0.6635489312486841 0  0.1598132503680848 0.7787147500325552 0  0.3146529991605639 0.8510876378205265 0  0.1461873209418733 0.05982804528877814 0  0.06109554988524315 0.2446551776247686 0  0.8054950308560754 0.5564226538848541 0  0.470541749491976 0.8853316336952531 0  0.6948472567465137 0.4042308563372457 0  0.8802828472348889 0.4658893256343853 0  0.6788075634946739 0.7974194205806069 0  0.2155048659603867 0.2428201584940968 0  0.8131223143423806 0.2132171049028394 0  0.4330798005432235 0.6671274900735726 0  0.6015279126162613 0.2187368078743274 0  0.8061636571464289 0.8703766630361714 0  0.7008230445061776 0.3478568388444072 0  0.8638466246958771 0.3147095987735538 0  0.204801534004265 0.8789209409594009 0  0.2449006736431132 0.9424182882803838 0  0.7611268409371427 0.2643056884799992 0  0.7552800864046191 0.7678006649959446 0  0.5983639638906616 0.864113435029236 0  0.1956559506814437 0.577281203577426 0  0.3527670268164207 0.1320469097565204 0  0.7530364577483248 0.3262386077083089 0  0.4535919187979363 0.4690107087451527 0  0.8824869791666666 0.8336588541666666 0  0.8814453125 0.9451171875 0  0.5582987942628019 0.622421666543858 0  0.6817532446064828 0.6939001801354731 0  0.3830295138888889 0.9450968952922078 0  0.4140603937012541 0.05211333372716105 0  0.5535864501303013 0.3060591985391672 0  0.6560130086346878 0.2729726562211558 0  0.890203140221684 0.5948314305427268 0  0.7043857725999024 0.593980890020804 0  0.5105843922695152 0.8016828014338627 0  0.05365910753708378 0.7315110031682004 0  0.616904573672261 0.4621186633436136 0  0.5338511646455415 0.387875898899613 0  0.5231769258947843 0.4477682463140762 0  0.650302973237622 0.7370722302085519 0  0.3927483139621257 0.4662414504529014 0  0.8034595960585199 0.4972538342758211 0  0.7738337841682438 0.9496376207663251 0  0.7193737507158268 0.954685447650112 0  0.482525916480686 0.5528257169991676 0  0.2533501157346781 0.2809495420003238 0  0.3118487924482243 0.5702930126570319 0  0.6257598847669529 0.4104163315430518 0  0.1354166666666667 0.1955605158730158 0  0.04166666666666666 0.15625 0  0.3956448985530264 0.6174149462065157 0  0.8102897701818546 0.3938784238208349 0  0.2641154190013625 0.8344469561943118 0  0.642852220770013 0.5068794586563659 0  0.05271458179508221 0.355846947336007 0  0.7021551360070266 0.8921457280225779 0  0.5692125776683765 0.1328512638850284 0  0.5206162811937602 0.04865158770992991 0  0.6001838442201555 0.04540556991297563 0  0.2597716608242787 0.4118346398477178 0  0.4040584599473195 0.3179589136784675 0  0.1480337679295207 0.8941560631483065 0  0.1344356707112281 0.9466251177415842 0  0.7114696411829317 0.4983917389078826 0  0.7585704698442475 0.5751926345944629 0  0.2189131956390871 0.04022068508159698 0  0.2476935455192043 0.1123642267635843 0  0.185995005654517 0.1365524537205238 0  0.6223414373308711 0.643380839165121 0  0.5732602596637543 0.7190051747306219 0  0.268358222364537 0.6586246524467934 0  0.3265879848129173 0.2369791782191225 0  0.1267095595787346 0.7034787238999181 0  0.1115202922226038 0.6421997933884982 0  0.3128688392940203 0.07260997451790079 0  0.550724900485678 0.9253360991633187 0  0.7142608810459105 0.2384904702214873 0  0.7045869185243887 0.1871826897887429 0  0.890625 0.734375 0  0.953125 0.765625 0  0.2111812642821677 0.8286209446459138 0  0.9590293078204457 0.09375 0  0.953431269039847 0.1435719386408004 0  0.04097069217955424 0.90625 0  0.04656873096015299 0.8564280613591996 0  0.1078743037981226 0.8541621766048062 0  0.8921256962018773 0.1458378233951939 0  0.8521576979194619 0.1084496634207678 0  0.8655663982740958 0.05464346096571447 0  0.04005659640905543 0.09375 0  0.1001448316533417 0.04246776244228261 
[...]
<PointData  Vectors="f_739701-0"> 
<DataArray  type="Float64"  Name="f_739701-0"  NumberOfComponents="3" format="ascii">0.0000000000000000e+00 0.0000000000000000e+00 0.0000000000000000e+00  0.0000000000000000e+00 0.0000000000000000e+00 0.0000000000000000e+00  0.0000000000000000e+00 0.0000000000000000e+00 0.0000000000000000e+00  0.0000000000000000e+00 0.0000000000000000e+00 0.0000000000000000e+00  0.0000000000000000e+00 0.0000000000000000e+00 0.0000000000000000e+00  0.0000000000000000e+00 0.0000000000000000e+00 0.0000000000000000e+00  1.0000000000000000e+00 0.0000000000000000e+00 0.0000000000000000e+00  0.0000000000000000e+00 0.0000000000000000e+00 0.0000000000000000e+00  -1.3245845624452687e-01 3.0850221767947696e-03 0.0000000000000000e+00  0.0000000000000000e+00 0.0000000000000000e+00 0.0000000000000000e+00  0.0000000000000000e+00 0.0000000000000000e+00 0.0000000000000000e+00  5.6250000000000000e-01 0.0000000000000000e+00 0.0000000000000000e+00  0.0000000000000000e+00 0.0000000000000000e+00 0.0000000000000000e+00  0.0000000000000000e+00 0.0000000000000000e+00 0.0000000000000000e+00  0.0000000000000000e+00 0.0000000000000000e+00 0.0000000000000000e+00  0.0000000000000000e+00 0.0000000000000000e+00 0.0000000000000000e+00  5.6250000000000000e-01 0.0000000000000000e+00 0.0000000000000000e+00  -5.9333059632289971e-02 -4.0968195672116105e-02 0.0000000000000000e+00  -6.3430941233269617e-02 1.7411616153282408e-01 0.0000000000000000e+00  -6.6398074667396945e-02 2.2446799107652744e-02 0.0000000000000000e+00  -8.2295702737795476e-02 -1.6285355266895446e-01 0.0000000000000000e+00  -7.2955342181417790e-02 9.8447187304017067e-02 0.0000000000000000e+00  -5.9934844328668524e-02 -2.9645470688548968e-02 0.0000000000000000e+00  -2.0149460810425603e-02 1.8232606867135313e-02 0.0000000000000000e+00  2.2577970871268602e-03 -2.0840478078058375e-01 0.0000000000000000e+00  -2.2623786388837514e-02 -5.6462551961408210e-02 0.0000000000000000e+00  -3.5087600117710227e-02 1.3956842002851352e-01 0.0000000000000000e+00  1.3494783132186980e-01 1.2989666657233706e-01 0.0000000000000000e+00  -5.8016389675977879e-02 -5.6498141918042005e-03 0.0000000000000000e+00  -1.3769079675146109e-02 -1.2869468722821622e-02 0.0000000000000000e+00  2.0651471384463389e-02 1.8398985823091266e-01 0.0000000000000000e+00  -1.0108716145642993e-01 -8.2471505128287187e-02 0.0000000000000000e+00  -2.1444294901861252e-02 4.8605467517597527e-02 0.0000000000000000e+00  1.2355256019542847e-01 -1.4264403942314299e-01 0.0000000000000000e+00  -9.9078046237206147e-02 -2.3327603871468794e-03 0.0000000000000000e+00  -1.1587457241515545e-01 9.8884749846779529e-02 0.0000000000000000e+00  -3.2307554811098156e-02 -1.0355323957356066e-02 0.0000000000000000e+00  -1.0392715222177931e-01 4.8589530864714382e-02 0.0000000000000000e+00  -1.2627488567282852e-01 -8.1037750367548039e-02 0.0000000000000000e+00  -3.0774373428005451e-02 -1.6912379156449839e-01 0.0000000000000000e+00  -3.9866815948120089e-02 3.8931849521966224e-03 0.0000000000000000e+00  -3.7632785586942101e-02 -1.1319510816056753e-01 0.0000000000000000e+00  0.0000000000000000e+00 0.0000000000000000e+00 0.0000000000000000e+00  0.0000000000000000e+00 0.0000000000000000e+00 0.0000000000000000e+00  0.0000000000000000e+00 0.0000000000000000e+00 0.0000000000000000e+00  1.9140625000000000e-01 0.0000000000000000e+00 0.0000000000000000e+00  -2.5719073193498875e-02 8.5405813512348799e-02 0.0000000000000000e+00  -5.8655656367608340e-02 5.3385304268634776e-02 0.0000000000000000e+00  -5.3538425680165251e-02 -1.7581438022370044e-01 0.0000000000000000e+00  0.0000000000000000e+00 0.0000000000000000e+00 0.0000000000000000e+00  0.0000000000000000e+00 0.0000000000000000e+00 0.0000000000000000e+00  1.9140625000000000e-01 0.0000000000000000e+00 0.0000000000000000e+00  0.0000000000000000e+00 0.0000000000000000e+00 0.0000000000000000e+00  0.0000000000000000e+00 0.0000000000000000e+00 0.0000000000000000e+00  0.0000000000000000e+00 0.0000000000000000e+00 0.0000000000000000e+00  0.0000000000000000e+00 0.0000000000000000e+00 0.0000000000000000e+00  8.7890625000000000e-01 0.0000000000000000e+00 0.0000000000000000e+00  0.0000000000000000e+00 0.0000000000000000e+00 0.0000000000000000e+00  0.0000000000000000e+00 0.0000000000000000e+00 0.0000000000000000e+00  8.7890625000000000e-01 0.0000000000000000e+00 0.0000000000000000e+00  0.0000000000000000e+00 0.0000000000000000e+00 0.0000000000000000e+00  -2.7387819069471270e-02 8.4313800815672586e-03 0.0000000000000000e+00  -5.6788120069026123e-02 1.0119671698739194e-01 0.0000000000000000e+00  1.8641207119757597e-01 -2.2129802062533302e-02 0.0000000000000000e+00  -1.2834162055567469e-01 2.1350617623110028e-02 0.0000000000000000e+00  -3.1817093587717192e-02 1.8683711391060834e-01 0.0000000000000000e+00  -7.7980566038933719e-02 1.4198422461348803e-01 0.0000000000000000e+00  1.2829977145923072e-01 1.6854133971477805e-01 0.0000000000000000e+00  -2.7825068598339064e-02 -3.6514167809901542e-02 0.0000000000000000e+00  -6.1367054634644182e-02 -7.4491232914870656e-02 0.0000000000000000e+00  -1.1462472131543758e-01 -3.3110207107253493e-02 0.0000000000000000e+00  -7.7681564808696937e-02 -2.1941648508338556e-02 0.0000000000000000e+00  -1.2844117001444532e-02 1.1950934855328009e-01 0.0000000000000000e+00  -4.7006580840868607e-03 9.4372793393516525e-03 0.0000000000000000e+00  -1.1005814278878629e-02 4.7547282983009731e-03 0.0000000000000000e+00  -4.4255014152134432e-02 2.8153607680378893e-02 0.0000000000000000e+00  -1.0742082004726419e-02 -1.6728554368810619e-01 0.0000000000000000e+00  4.1957686802886439e-02 -1.6371510853463209e-01 0.0000000000000000e+00  1.6199388714265414e-01 -1.6671559834762606e-01 0.0000000000000000e+00  -2.9093305518541997e-02 -1.5794298405668748e-03 0.0000000000000000e+00  -2.2451128312178017e-03 2.2381840354590830e-03 0.0000000000000000e+00  -6.5268024303589495e-02 5.7984295459271281e-03 0.0000000000000000e+00  -7.9688874743030325e-02 -1.2439216809226865e-01 0.0000000000000000e+00  -8.8505213762364740e-02 -4.7031925838332087e-02 0.0000000000000000e+00  -3.3882897140986627e-02 -2.3262908959187676e-02 0.0000000000000000e+00  -2.0380398094046012e-03 1.2725709403806967e-01 0.0000000000000000e+00  3.4163409212126655e-02 1.2044251949786743e-01 0.0000000000000000e+00  -3.5375974722519194e-03 -8.1731724079149876e-03 0.0000000000000000e+00  -2.4354998765624006e-03 -2.4199078004991151e-03 0.0000000000000000e+00  -7.6703911032423707e-03 -3.0394851744482252e-03 0.0000000000000000e+00  -6.9719096063323759e-03 1.9845361648283533e-01 0.0000000000000000e+00  -8.1098384386809243e-03 -2.3026665735350869e-02 0.0000000000000000e+00  -4.8060454211607422e-02 -2.0100539224708761e-01 0.0000000000000000e+00  -7.7636382856051938e-03 -4.5839044081884210e-02 0.0000000000000000e+00  4.2196410469593387e-01 5.3176832312304655e-02 0.0000000000000000e+00  -1.0139103714829110e-01 1.1762928639817644e-01 0.0000000000000000e+00  -8.9734223235493245e-03 7.2272950603504207e-02 0.0000000000000000e+00  -1.0290313220915320e-02 -7.7277182237335415e-02 0.0000000000000000e+00  5.0575630726905213e-02 6.0764819164758128e-02 0.0000000000000000e+00  1.5758670356722038e-01 1.2415015662997812e-01 0.0000000000000000e+00  -9.8368691951885384e-02 -1.0479838259844966e-01 0.0000000000000000e+00  -2.3865769833934361e-02 -1.1914961471738320e-01 0.0000000000000000e+00  -5.2520294699828635e-03 1.6641452504893017e-01 0.0000000000000000e+00  -1.2771292052453023e-01 -5.1387147663019120e-02 0.0000000000000000e+00  -5.4146192722251352e-02 -2.1208364622916791e-02 0.0000000000000000e+00  -1.5839253511846903e-02 2.7446481644193072e-02 0.0000000000000000e+00  0.0000000000000000e+00 0.0000000000000000e+00 0.0000000000000000e+00  -4.7845043967255113e-02 7.3516493364345889e-02 0.0000000000000000e+00  -4.8427347218822220e-02 -1.5529494827199883e-01 0.0000000000000000e+00  7.3852539062500000e-01 0.0000000000000000e+00 0.0000000000000000e+00  -5.7738160995569061e-02 1.7174824423008200e-01 0.0000000000000000e+00  0.0000000000000000e+00 0.0000000000000000e+00 0.0000000000000000e+00  -9.0668058083491349e-03 4.3337956588234444e-02 0.0000000000000000e+00  -1.0469523157235633e-01 8.4978744095839179e-02 0.0000000000000000e+00  -8.0680280792147563e-02 4.1368903178133840e-02 0.0000000000000000e+00  -8.4239257594684411e-02 1.3711077916665716e-02 0.0000000000000000e+00  -1.1666886863943390e-01 1.3402081214370755e-02 0.0000000000000000e+00  -4.4041713276330677e-02 -9.0519917408863698e-02 0.0000000000000000e+00  2.4099707285129932e-02 -1.9128640750023174e-01 0.0000000000000000e+00  -1.0966146333660425e-01 -1.0837872281170811e-01 0.0000000000000000e+00  -5.3883612018073249e-02 1.1964018233839803e-01 0.0000000000000000e+00  3.2332837348472393e-01 1.1312798244717948e-01 0.0000000000000000e+00  3.7133789062500000e-01 0.0000000000000000e+00 0.0000000000000000e+00  -1.2603597094312458e-01 5.3568182021550462e-02 0.0000000000000000e+00  -7.8977880618449903e-02 -4.2851620106767446e-03 0.0000000000000000e+00  0.0000000000000000e+00 0.0000000000000000e+00 0.0000000000000000e+00  -3.4691636129369721e-02 4.4857416139817051e-02 0.0000000000000000e+00  9.6899414062500011e-01 0.0000000000000000e+00 0.0000000000000000e+00  3.5641304599718715e-01 -7.6299087606808688e-02 0.0000000000000000e+00  -2.3635135455670447e-02 -3.0148501855386083e-03 0.0000000000000000e+00  -4.6230978229331025e-02 1.6298360880380024e-02 0.0000000000000000e+00  -1.0503644147937559e-01 -1.3442241045628636e-01 0.0000000000000000e+00  -9.4758468193099230e-02 1.4169605184697631e-01 0.0000000000000000e+00  -1.4939610108276116e-02 -3.7111128670278509e-03 0.0000000000000000e+00  -4.4013563233786079e-02 -8.5637837241557269e-03 0.0000000000000000e+00  -1.1315050699003720e-01 -3.4738085806141870e-02 0.0000000000000000e+00  -9.4050739248083270e-02 3.4088398065542709e-02 0.0000000000000000e+00  -6.3865883881926416e-03 2.3466355125241822e-02 0.0000000000000000e+00  -1.3637670814750508e-01 -2.2923473981676590e-02 0.0000000000000000e+00  -8.1837462369596436e-02 6.7184676803926660e-02 0.0000000000000000e+00  -2.3589507361095805e-02 2.9701693827910410e-03 0.0000000000000000e+00  -4.3952665876830527e-02 -3.0339864487529331e-05 0.0000000000000000e+00  0.0000000000000000e+00 0.0000000000000000e+00 0.0000000000000000e+00  -2.4312616623130931e-02 5.4062305858909490e-04 0.0000000000000000e+00  -1.0565783120521347e-02 -1.1963218043816271e-01 0.0000000000000000e+00  -1.3830176025394084e-02 -1.0744946733762692e-01 0.0000000000000000e+00  5.4931640625000000e-02 0.0000000000000000e+00 0.0000000000000000e+00  3.5526201132897889e-01 -1.1156771017585160e-01 0.0000000000000000e+00  -1.3456505774063217e-02 1.5792901726743100e-01 0.0000000000000000e+00  -1.3109757348484297e-02 -2.0426838525888270e-02 0.0000000000000000e+00  -9.8713964551009184e-02 -2.5442491658647107e-02 0.0000000000000000e+00  -8.6181465608028088e-03 8.7060400065214240e-03 0.0000000000000000e+00  0.0000000000000000e+00 0.0000000000000000e+00 0.0000000000000000e+00  1.5999298166668507e-01 -1.3433652317505049e-01 0.0000000000000000e+00  -9.9904247077712671e-02 2.3730436382475979e-02 0.0000000000000000e+00  -1.3049326828920094e-01 5.4954730863525911e-02 0.0000000000000000e+00  -3.8661559129503989e-02 -5.6877894054700277e-02 0.0000000000000000e+00  -1.9176151556505150e-02 -1.0109713000536962e-02 0.0000000000000000e+00  0.0000000000000000e+00 0.0000000000000000e+00 0.0000000000000000e+00  -7.7054941178600372e-02 -9.6635663556009804e-02 0.0000000000000000e+00  2.6585530532407136e-03 -1.2974513341127328e-01 0.0000000000000000e+00  2.8060355049870957e-02 -5.8626372699585441e-02 0.0000000000000000e+00  -5.9346438499163785e-03 -2.8049758072318229e-02 0.0000000000000000e+00  0.0000000000000000e+00 0.0000000000000000e+00 0.0000000000000000e+00  0.0000000000000000e+00 0.0000000000000000e+00 0.0000000000000000e+00  5.4931640625000000e-02 0.0000000000000000e+00 0.0000000000000000e+00  0.0000000000000000e+00 0.0000000000000000e+00 0.0000000000000000e+00  -8.1628030958298473e-03 5.6733645198528006e-02 0.0000000000000000e+00  -2.7095532590314109e-02 6.9173657655528367e-02 0.0000000000000000e+00  -2.7953288243093788e-02 1.0812771178325081e-01 0.0000000000000000e+00  -1.2808085782707330e-02 2.7799060631594897e-03 0.0000000000000000e+00  -2.9401251605359537e-02 1.6421546294961634e-02 0.0000000000000000e+00  -7.4235115663402282e-02 -1.7971517061244577e-01 0.0000000000000000e+00  0.0000000000000000e+00 0.0000000000000000e+00 0.0000000000000000e+00  0.0000000000000000e+00 0.0000000000000000e+00 0.0000000000000000e+00  -2.5435780157340951e-02 -2.0099494039668900e-01 0.0000000000000000e+00  -6.1696824210434459e-02 3.7286740234817366e-02 0.0000000000000000e+00  -5.3587161922962152e-02 1.0487302570206787e-02 0.0000000000000000e+00  -4.7146462808164737e-02 9.3929336512250536e-02 0.0000000000000000e+00  -8.9573610745193308e-02 1.1409552394614340e-01 0.0000000000000000e+00  1.9266264663913957e-02 1.1923256720194746e-01 0.0000000000000000e+00  -6.2411776456004625e-02 1.4670976779332834e-01 0.0000000000000000e+00  4.5249236331499920e-01 6.1435195018757077e-03 0.0000000000000000e+00  -8.3601751197885411e-03 -5.8430910912103180e-02 0.0000000000000000e+00  7.3852539062500000e-01 0.0000000000000000e+00 0.0000000000000000e+00  3.7133789062500000e-01 0.0000000000000000e+00 0.0000000000000000e+00  0.0000000000000000e+00 0.0000000000000000e+00 0.0000000000000000e+00  9.6899414062500011e-01 0.0000000000000000e+00 0.0000000000000000e+00  0.0000000000000000e+00 0.0000000000000000e+00 0.0000000000000000e+00  0.0000000000000000e+00 0.0000000000000000e+00 0.0000000000000000e+00  0.0000000000000000e+00 0.0000000000000000e+00 0.0000000000000000e+00  0.0000000000000000e+00 0.0000000000000000e+00 0.0000000000000000e+00  0.0000000000000000e+00 0.0000000000000000e+00 0.0000000000000000e+00  0.0000000000000000e+00 0.0000000000000000e+00 0.0000000000000000e+00  0.0000000000000000e+00 0.0000000000000000e+00 0.0000000000000000e+00  0.0000000000000000e+00 0.0000000000000000e+00 0.0000000000000000e+00  0.0000000000000000e+00 0.0000000000000000e+00 0.0000000000000000e+00  0.0000000000000000e+00 0.0000000000000000e+00 0.0000000000000000e+00  0.0000000000000000e+00 0.0000000000000000e+00 0.0000000000000000e+00  0.0000000000000000e+00 0.0000000000000000e+00 0.0000000000000000e+00  -5.9074361086905683e-02 -1.8190948133682408e-01 0.0000000000000000e+00  -8.3773149564363384e-03 8.3614082023378125e-02 0.0000000000000000e+00  3.9004495239998743e-02 -8.8178390467658213e-02 0.0000000000000000e+00  -4.0339344029600314e-02 4.7604871369871640e-02 0.0000000000000000e+00  -4.9734683552778415e-02 1.8857174211977898e-01 0.0000000000000000e+00  -3.6350338457002529e-02 1.6511092781459188e-01 0.0000000000000000e+00  -1.1341958207482678e-02 1.9033184488683055e-01 0.0000000000000000e+00  8.1152137728431065e-02 1.6920256429538119e-01 0.0000000000000000e+00  -3.7003903759846284e-03 1.7565748700417269e-03 0.0000000000000000e+00  -3.4721353889990729e-03 1.2280311001016295e-02 0.0000000000000000e+00  -6.0388037295142284e-02 -1.3911077035219482e-01 0.0000000000000000e+00  2.0636265815856189e-01 4.2439714972035227e-02 0.0000000000000000e+00  -8.4081378546571842e-02 -6.9991861574943040e-02 0.0000000000000000e+00  -2.4490985053451125e-02 -8.1901307375078086e-02 0.0000000000000000e+00  -3.3771613148011327e-03 -1.6457076682564437e-01 0.0000000000000000e+00  -3.2080842752574029e-02 3.0712961554376209e-02 0.0000000000000000e+00  -2.3238451123723650e-02 -2.3460069815253854e-02 0.0000000000000000e+00  -1.1217824235626846e-01 6.9587170231968171e-02 0.0000000000000000e+00  -6.3039958689363851e-02 -1.4537620316899822e-02 0.0000000000000000e+00  7.3847984526138180e-02 -1.8574526743377298e-01 0.0000000000000000e+00  -7.1824897974675214e-02 -5.4775004879197169e-02 0.0000000000000000e+00  -2.0132261688950388e-02 -4.1096589672271366e-02 0.0000000000000000e+00  7.9289124486390805e-02 1.7451062420640742e-01 0.0000000000000000e+00  2.4889864869687320e-01 1.1845227946662620e-01 0.0000000000000000e+00  -4.1556535711768254e-02 -3.6658187590766125e-02 0.0000000000000000e+00  -3.1029467694305299e-02 -2.0107907963606550e-01 0.0000000000000000e+00  1.3303816617808148e-01 -9.2523440958370382e-02 0.0000000000000000e+00  -5.5034845222756062e-02 1.4280531945446215e-01 0.0000000000000000e+00  -3.6603974376329236e-02 8.3223721244028784e-03 0.0000000000000000e+00  -5.3083734444899312e-02 -5.3343508429434014e-02 0.0000000000000000e+00  -1.2486092175394718e-01 2.8248712914950066e-02 0.0000000000000000e+00  6.0595643521534947e-03 -1.8678274105027748e-01 0.0000000000000000e+00  1.1732404052437444e-01 -1.0933253464614821e-01 0.0000000000000000e+00  -1.2973021203056581e-01 -4.4857912024170901e-02 0.0000000000000000e+00  -8.6167085644726332e-02 -1.5344491725972609e-01 0.0000000000000000e+00  4.3927900341661652e-01 7.7095646838334239e-02 0.0000000000000000e+00  -1.8932016051886505e-02 9.7954749550656080e-04 0.0000000000000000e+00  -8.9141085292383695e-02 -1.3738950950632517e-02 0.0000000000000000e+00  -6.7126887794179260e-02 -3.0470014440066591e-02 0.0000000000000000e+00  -2.6380909175931552e-02 -1.2469455822406247e-01 0.0000000000000000e+00  -1.0060224032814886e-01 -1.3648052580311493e-01 0.0000000000000000e+00  2.5365332926975803e-03 2.9514122624979566e-04 0.0000000000000000e+00  -5.5253144185235135e-03 9.6638524619971120e-02 0.0000000000000000e+00  -1.1502303844052086e-01 -5.8605451855070032e-02 0.0000000000000000e+00  -1.1026348748783064e-01 -1.2365310638283861e-02 0.0000000000000000e+00  -1.2366652577906367e-01 -9.8689255364106058e-03 0.0000000000000000e+00  -6.6569819920574202e-02 -1.3875507293694916e-01 0.0000000000000000e+00  -1.1452467324134891e-01 5.8317633642831414e-02 0.0000000000000000e+00  -5.6942448770694931e-02 -1.1424908161579220e-01 0.0000000000000000e+00  2.8563721240351109e-01 -1.1067975152480891e-01 0.0000000000000000e+00  3.9106057356888763e-01 -1.0150458006056719e-01 0.0000000000000000e+00  -1.3604406075399927e-01 1.6976515154061594e-02 0.0000000000000000e+00  -4.6441091980524471e-02 4.0236422096239725e-02 0.0000000000000000e+00  -9.9461671082379965e-02 1.2345954449342923e-01 0.0000000000000000e+00  -1.0318604287642510e-01 -5.1359409000746772e-02 0.0000000000000000e+00  -1.1976742131863194e-02 1.5956225927212568e-02 0.0000000000000000e+00  -1.0009182848897862e-03 2.9230006983634871e-03 0.0000000000000000e+00  -1.1909416400786989e-01 9.0328928790688920e-02 0.0000000000000000e+00  -4.3471144853428519e-02 -7.3724484853084832e-02 0.0000000000000000e+00  4.4027070102862068e-02 1.8929015678835689e-01 0.0000000000000000e+00  -1.1557472762456658e-01 -8.1369928417554388e-02 0.0000000000000000e+00  -3.8615881038481618e-03 2.3664952159647330e-02 0.0000000000000000e+00  1.7974062408125574e-01 -1.5819584266199682e-01 0.0000000000000000e+00  -4.3866340158447967e-02 -4.2611036538144648e-03 0.0000000000000000e+00  -1.9221618331957489e-02 -1.9368178347066071e-04 0.0000000000000000e+00  -1.6344866617866813e-02 -8.4168677636573225e-04 0.0000000000000000e+00  -6.7346540677155495e-02 7.9137297787146413e-02 0.0000000000000000e+00  -8.6309957868380680e-02 2.7287653722900637e-02 0.0000000000000000e+00  6.0560596825495000e-02 1.5358075516470002e-01 0.0000000000000000e+00  1.1448666880080224e-01 1.0095011340505050e-01 0.0000000000000000e+00  -9.3265949614655258e-02 -1.0524755474611990e-01 0.0000000000000000e+00  -8.0620747202440987e-02 -1.4532536708427474e-01 0.0000000000000000e+00  -5.7594367751960408e-03 1.1153781174241327e-03 0.0000000000000000e+00  -1.9571077550097141e-02 7.8180425941810090e-03 0.0000000000000000e+00  -1.4577408835444663e-02 1.0127039191942430e-02 0.0000000000000000e+00  -1.1601459442178319e-01 -1.0040367374897020e-01 0.0000000000000000e+00  -8.8156570799888340e-02 -6.6801188384349161e-02 0.0000000000000000e+00  -7.4178128117440276e-02 1.6809822339751498e-01 0.0000000000000000e+00  -5.5213464314016539e-02 2.5832107083953417e-02 0.0000000000000000e+00  -2.3374236019072476e-02 1.6189327088529845e-01 0.0000000000000000e