<?xml version="1.0"?>
<VTKFile type="UnstructuredGrid"  version="0.1"  >
<UnstructuredGrid>
<Piece  NumberOfPoints="2066" NumberOfCells="3980">
<Points>
<DataArray  type="Float64"  NumberOfComponents="3"  format="ascii">0 1 0  0 0 0  1 0 0  1 1 0  0.5 0 0  1 0.5 0  0.5 1 0  0 0.5 0  0.5 0.5 0  0 0.25 0  0.25 0 0  0.25 1 0  0 0.75 0  1 0.25 0  0.75 0 0  1 0.75 0  0.75 1 0  0.7083333333333333 0.2916666666666667 0  0.2916666666666666 0.7083333333333334 0  0.375 0.25 0  0.75 0.625 0  0.2569444444444444 0.4652777777777778 0  0.5366379310344828 0.7535919540229885 0  0.1875 0.1875 0  0.8125 0.8125 0  0.869047619047619 0.375 0  0.1450441919191919 0.6052714646464646 0  0.375 0.8690476190476191 0  0.5526960784313725 0.1825980392156862 0  0.8385416666666666 0.1614583333333334 0  0.1614583333333333 0.8385416666666667 0  0.6736111111111112 0.4652777777777778 0  0.1367521367521368 0.3477564102564102 0  0.6570970491253563 0.8648656830417855 0  0.5102479397556124 0.3386260301221938 0  0.3654513888888889 0.5737847222222222 0  0.6929750044954185 0.1362784921584263 0  0.388576102743835 0.411911725237599 0  0.6091269841269842 0.5942460317460317 0  0.875 0.6875 0  0.427278890279516 0.119889445139758 0  0.8544456845238095 0.5213913690476191 0  0.125 0 0  0 0.125 0  1 0.875 0  0.875 1 0  0.1280008648150532 0.4769292340226777 0  0.2695382451711197 0.3321750950221553 0  0.7031567235715964 0.7447810921428012 0  0.625 0 0  0.375 0 0  0.125 1 0  0.875 0 0  0 0.375 0  0 0.625 0  1 0.375 0  0.375 1 0  1 0.125 0  0 0.875 0  0.625 1 0  1 0.625 0  0.2979288363930608 0.1201429454643536 0  0.410919540229885 0.7484605911330049 0  0.5325041980395562 0.878905151526474 0  0.4831670727569156 0.6331060043826487 0  0.1735997378973042 0.7204747378973043 0  0.2534919507575758 0.5772372159090909 0  0.2633928571428572 0.8876488095238095 0  0.8199404761904761 0.2730654761904762 0  0.75830270586982 0.3919383189517417 0  0.5750282248382511 0.4237522353023667 0  0.6008360210023379 0.2794828358598495 0  0.08163442644334186 0.6821295860397322 0  0.08333333333333333 0.1875 0  0.2028380815996574 0.08844602719988583 0  0.2766521142611967 0.2325436572164097 0  0.90625 0.78125 0  0.890625 0.890625 0  0.7545696325008384 0.8973565441669461 0  0.5625 0.08086590340834317 0  0.09077380952380953 0.09077380952380952 0  0.4610923478694773 0.209034015149656 0  0.7542527598351648 0.5248380520595106 0  0.6459235536037465 0.3619913988405765 0  0.7560381768882634 0.20506142233852 0  0.07073252688172042 0.8125 0  0.0924753097241701 0.9078102849914793 0  0.9292674731182795 0.1875 0  0.9075246902758297 0.09218971500852073 0  0.8125 0.07073252688172045 0  0.2400955776842301 0.7869705776842302 0  0.9121050213379069 0.2781978201831695 0  0.7916878157143976 0.7239689078571988 0  0.9345238095238094 0.4375 0  0.4375 0.9345238095238095 0  0.3725616989755203 0.6651895248862173 0  0.06536271996350887 0.5625 0  0.9348362560379583 0.5625 0  0.456646798987055 0.8277247094351965 0  0.1875 0.9355758238725954 0  0.6169761231634859 0.6939779188977889 0  0.6226854751147515 0.7827911461419014 0  0.3305695598137626 0.7901697871282585 0  0.5865305325818898 0.5101085479043448 0  0.6622701297028378 0.2177663989757395 0  0.1354166666666667 0.2591702279202279 0  0 0.3125 0  0.2094429575680048 0.3936361846162499 0  0.836666296419157 0.607917407161686 0  0.6875 1 0  0.214261555450504 0.6492551722020035 0  0 0.4375 0  0.07731537126068377 0.40625 0  0.3427725432967068 0.4879566233699599 0  0.3550792513951871 0.3331953632609953 0  0.4462473953896857 0.2887834789342508 0  0.4747801464819794 0.417386052030127 0  0.8229836475148948 0.4443292349237342 0  0.7322605135514757 0.8199240278289671 0  0.6756431877205955 0.5468989748126787 0  0.1968419507215863 0.5194573482612496 0  0.3285590277777778 0.9345238095238095 0  0.8125 1 0  0.4198917601920009 0.5134893045331258 0  0.5232405503206691 0.2595791787880157 0  1 0.9375 0  0.1987510870015086 0.3025185951894431 0  0.5625 1 0  0.6005390654136388 0.9228110509230952 0  0.6411254848194414 0.07704872765442942 0  0.3357233162523242 0.1855113224530532 0  0.6730653396610877 0.6393887462324165 0  0.310966987234063 0.6240019765311626 0  0.7368737836204349 0.07457755202327881 0  0.6192316414418171 0.1485238406378594 0  0.5432429670607106 0.678552703844006 0  0.4754371679695679 0.7103946803120881 0  0.07501324890749672 0.3043839897335739 0  0.5358146975860403 0.5688321463205916 0  0.3115271739500156 0.3982137365971444 0  0.3625191397122174 0.0767854603650549 0  0.5024029442563831 0.1264128223758444 0  0.4375 0 0  0.4699946908887376 0.06379961173775725 0  0.9375 0.71875 0  0.9272105898044465 0.635671179608893 0  0.9375 1 0  0.6690971819568612 0.9331530898202766 0  0.1073454944778885 0.7499206387638554 0  0.8699082999280406 0.2232403652524313 0  0.5773118091863964 0.3548027349159383 0  0.1354166666666667 0.1428571428571428 0  0.3125 0 0  0.8241684193077341 0.9257452995055244 0  0.4352314948354036 0.3586940847489378 0  0.4351301473778832 0.5819726043539077 0  0.8073232928518163 0.3419398170341962 0  0.7775949246947366 0.1298519409204575 0  0.6875 0 0  0.7413513991851041 0.457933324954483 0  0.939453125 0.841796875 0  0.5630355154606987 0.8171875156478349 0  0.9345238095238095 0.3461466592368577 0  0.9375 0 0  1 0.0625 0  0.0625 1 0  0 0.9375 0  0.06552178593177167 0.4969053669623468 0  0.1424866619031703 0.4130277709291224 0  0.1275287182444726 0.5422946908002588 0  0.2637686595586339 0.06413888464529549 0  0.2524263535491086 0.1697437503243817 0  0.7367218397988525 0.6888573970660841 0  0.0625 0 0  0 0.0625 0  0.8463594539285995 0.7578283617857982 0  0.3128751192101563 0.2851997374369947 0  0.4015281788351144 0.1806421385113692 0  0.1910251795116588 0.4553332197174453 0  0.287797471442006 0.5222621440543902 0  0.3962628745986055 0.8097380085535307 0  0.3505895299554843 0.7304878890838692 0  0.5019151500495276 0.9356042615328103 0  0.9374389419410134 0.4999931039076005 0  0.3125 1 0  0.1875 1 0  1 0.5625 0  0.4375 1 0  1 0.3125 0  1 0.4375 0  0.8125 0 0  1 0.1875 0  0.5625 0 0  0.1875 0 0  0 0.1875 0  0 0.5625 0  0 0.6875 0  0 0.8125 0  1 0.6875 0  1 0.8125 0  0.8021696218581627 0.6612893947866073 0  0.06154922295426143 0.6239401126946708 0  0.9359375 0.9359375 0  0.4666158024849896 0.7691515918155014 0  0.2318201265217025 0.7064974250277525 0  0.1565954253579966 0.6635489312486841 0  0.1598132503680848 0.7787147500325552 0  0.3146529991605639 0.8510876378205265 0  0.1461873209418733 0.05982804528877814 0  0.06109554988524315 0.2446551776247686 0  0.8054950308560754 0.5564226538848541 0  0.470541749491976 0.8853316336952531 0  0.6948472567465137 0.4042308563372457 0  0.8802828472348889 0.4658893256343853 0  0.6788075634946739 0.7974194205806069 0  0.2155048659603867 0.2428201584940968 0  0.8131223143423806 0.2132171049028394 0  0.4330798005432235 0.6671274900735726 0  0.6015279126162613 0.2187368078743274 0  0.8061636571464289 0.8703766630361714 0  0.7008230445061776 0.3478568388444072 0  0.8638466246958771 0.3147095987735538 0  0.204801534004265 0.8789209409594009 0  0.2449006736431132 0.9424182882803838 0  0.7611268409371427 0.2643056884799992 0  0.7552800864046191 0.7678006649959446 0  0.5983639638906616 0.864113435029236 0  0.1956559506814437 0.577281203577426 0  0.3527670268164207 0.1320469097565204 0  0.7530364577483248 0.3262386077083089 0  0.4535919187979363 0.4690107087451527 0  0.8824869791666666 0.8336588541666666 0  0.8814453125 0.9451171875 0  0.5582987942628019 0.622421666543858 0  0.6817532446064828 0.6939001801354731 0  0.3830295138888889 0.9450968952922078 0  0.4140603937012541 0.05211333372716105 0  0.5535864501303013 0.3060591985391672 0  0.6560130086346878 0.2729726562211558 0  0.890203140221684 0.5948314305427268 0  0.7043857725999024 0.593980890020804 0  0.5105843922695152 0.8016828014338627 0  0.05365910753708378 0.7315110031682004 0  0.616904573672261 0.4621186633436136 0  0.5338511646455415 0.387875898899613 0  0.5231769258947843 0.4477682463140762 0  0.650302973237622 0.7370722302085519 0  0.3927483139621257 0.4662414504529014 0  0.8034595960585199 0.4972538342758211 0  0.7738337841682438 0.9496376207663251 0  0.7193737507158268 0.954685447650112 0  0.482525916480686 0.5528257169991676 0  0.2533501157346781 0.2809495420003238 0  0.3118487924482243 0.5702930126570319 0  0.6257598847669529 0.4104163315430518 0  0.1354166666666667 0.1955605158730158 0  0.04166666666666666 0.15625 0  0.3956448985530264 0.6174149462065157 0  0.8102897701818546 0.3938784238208349 0  0.2641154190013625 0.8344469561943118 0  0.642852220770013 0.5068794586563659 0  0.05271458179508221 0.355846947336007 0  0.7021551360070266 0.8921457280225779 0  0.5692125776683765 0.1328512638850284 0  0.5206162811937602 0.04865158770992991 0  0.6001838442201555 0.04540556991297563 0  0.2597716608242787 0.4118346398477178 0  0.4040584599473195 0.3179589136784675 0  0.1480337679295207 0.8941560631483065 0  0.1344356707112281 0.9466251177415842 0  0.7114696411829317 0.4983917389078826 0  0.7585704698442475 0.5751926345944629 0  0.2189131956390871 0.04022068508159698 0  0.2476935455192043 0.1123642267635843 0  0.185995005654517 0.1365524537205238 0  0.6223414373308711 0.643380839165121 0  0.5732602596637543 0.7190051747306219 0  0.268358222364537 0.6586246524467934 0  0.3265879848129173 0.2369791782191225 0  0.1267095595787346 0.7034787238999181 0  0.1115202922226038 0.6421997933884982 0  0.3128688392940203 0.07260997451790079 0  0.550724900485678 0.9253360991633187 0  0.7142608810459105 0.2384904702214873 0  0.7045869185243887 0.1871826897887429 0  0.890625 0.734375 0  0.953125 0.765625 0  0.2111812642821677 0.8286209446459138 0  0.9590293078204457 0.09375 0  0.953431269039847 0.1435719386408004 0  0.04097069217955424 0.90625 0  0.04656873096015299 0.8564280613591996 0  0.1078743037981226 0.8541621766048062 0  0.8921256962018773 0.1458378233951939 0  0.8521576979194619 0.1084496634207678 0  0.8655663982740958 0.05464346096571447 0  0.04005659640905543 0.09375 0  0.1001448316533417 0.04246776244228261 
[...]
<PointData  Vectors="f_66-0"> 
<DataArray  type="Float64"  Name="f_66-0"  NumberOfComponents="3" format="ascii">0.0000000000000000e+00 0.0000000000000000e+00 0.0000000000000000e+00  0.0000000000000000e+00 0.0000000000000000e+00 0.0000000000000000e+00  0.0000000000000000e+00 0.0000000000000000e+00 0.0000000000000000e+00  0.0000000000000000e+00 0.0000000000000000e+00 0.0000000000000000e+00  0.0000000000000000e+00 0.0000000000000000e+00 0.0000000000000000e+00  0.0000000000000000e+00 0.0000000000000000e+00 0.0000000000000000e+00  1.0000000000000000e+00 0.0000000000000000e+00 0.0000000000000000e+00  0.0000000000000000e+00 0.0000000000000000e+00 0.0000000000000000e+00  -1.3218747797739963e-01 3.2495320868166527e-03 0.0000000000000000e+00  0.0000000000000000e+00 0.0000000000000000e+00 0.0000000000000000e+00  0.0000000000000000e+00 0.0000000000000000e+00 0.0000000000000000e+00  5.6250000000000000e-01 0.0000000000000000e+00 0.0000000000000000e+00  0.0000000000000000e+00 0.0000000000000000e+00 0.0000000000000000e+00  0.0000000000000000e+00 0.0000000000000000e+00 0.0000000000000000e+00  0.0000000000000000e+00 0.0000000000000000e+00 0.0000000000000000e+00  0.0000000000000000e+00 0.0000000000000000e+00 0.0000000000000000e+00  5.6250000000000000e-01 0.0000000000000000e+00 0.0000000000000000e+00  -5.9288353261046159e-02 -4.0884902149609305e-02 0.0000000000000000e+00  -6.4061190208471633e-02 1.7313217089998290e-01 0.0000000000000000e+00  -6.6249800325092895e-02 2.2418288081423758e-02 0.0000000000000000e+00  -8.2829676507189962e-02 -1.6248816647005626e-01 0.0000000000000000e+00  -7.2861019805480667e-02 9.8219291055622424e-02 0.0000000000000000e+00  -5.9573068923114453e-02 -2.8784352298080591e-02 0.0000000000000000e+00  -2.0094580983540972e-02 1.8185245165810666e-02 0.0000000000000000e+00  1.5480651878764203e-03 -2.0889135564279826e-01 0.0000000000000000e+00  -2.2650198588168424e-02 -5.6443231975215086e-02 0.0000000000000000e+00  -3.5349264954526456e-02 1.3944299763829587e-01 0.0000000000000000e+00  1.3339204132063900e-01 1.2751508301731457e-01 0.0000000000000000e+00  -5.7913629544221322e-02 -5.6197628987616115e-03 0.0000000000000000e+00  -1.3757302382009069e-02 -1.2856864736155590e-02 0.0000000000000000e+00  1.8536352219373806e-02 1.8457684974969754e-01 0.0000000000000000e+00  -1.0110698697810910e-01 -8.2202450282893386e-02 0.0000000000000000e+00  -2.1398837655815316e-02 4.8483972487950062e-02 0.0000000000000000e+00  1.2477634745008138e-01 -1.4025827944234931e-01 0.0000000000000000e+00  -9.8898333261160348e-02 -2.2605358856648463e-03 0.0000000000000000e+00  -1.1569102588531556e-01 9.8568458871325107e-02 0.0000000000000000e+00  -3.2265074973873910e-02 -1.0334632261928973e-02 0.0000000000000000e+00  -1.0370588495853555e-01 4.8525553500345348e-02 0.0000000000000000e+00  -1.2624088524325808e-01 -8.0405174319851669e-02 0.0000000000000000e+00  -3.1342871512088116e-02 -1.6976876095824703e-01 0.0000000000000000e+00  -3.9779128199784637e-02 3.8926713287312873e-03 0.0000000000000000e+00  -3.7830890046886667e-02 -1.1326738907949373e-01 0.0000000000000000e+00  0.0000000000000000e+00 0.0000000000000000e+00 0.0000000000000000e+00  0.0000000000000000e+00 0.0000000000000000e+00 0.0000000000000000e+00  0.0000000000000000e+00 0.0000000000000000e+00 0.0000000000000000e+00  1.9140625000000000e-01 0.0000000000000000e+00 0.0000000000000000e+00  -2.5720295663303236e-02 8.5237489469651900e-02 0.0000000000000000e+00  -5.8525312989002570e-02 5.3269665033485396e-02 0.0000000000000000e+00  -5.4234903065444637e-02 -1.7464889749768195e-01 0.0000000000000000e+00  0.0000000000000000e+00 0.0000000000000000e+00 0.0000000000000000e+00  0.0000000000000000e+00 0.0000000000000000e+00 0.0000000000000000e+00  1.9140625000000000e-01 0.0000000000000000e+00 0.0000000000000000e+00  0.0000000000000000e+00 0.0000000000000000e+00 0.0000000000000000e+00  0.0000000000000000e+00 0.0000000000000000e+00 0.0000000000000000e+00  0.0000000000000000e+00 0.0000000000000000e+00 0.0000000000000000e+00  0.0000000000000000e+00 0.0000000000000000e+00 0.0000000000000000e+00  8.7890625000000000e-01 0.0000000000000000e+00 0.0000000000000000e+00  0.0000000000000000e+00 0.0000000000000000e+00 0.0000000000000000e+00  0.0000000000000000e+00 0.0000000000000000e+00 0.0000000000000000e+00  8.7890625000000000e-01 0.0000000000000000e+00 0.0000000000000000e+00  0.0000000000000000e+00 0.0000000000000000e+00 0.0000000000000000e+00  -2.7318173020596963e-02 8.4147661514729546e-03 0.0000000000000000e+00  -5.6747119609914028e-02 1.0038367238164798e-01 0.0000000000000000e+00  1.8679320642551392e-01 -2.1907958133284229e-02 0.0000000000000000e+00  -1.2798639854704438e-01 2.1525433798531526e-02 0.0000000000000000e+00  -3.2908982187743227e-02 1.8675511220082111e-01 0.0000000000000000e+00  -7.8090902506666504e-02 1.4159096036928620e-01 0.0000000000000000e+00  1.2558195057460764e-01 1.6660080834952562e-01 0.0000000000000000e+00  -2.7817653042445562e-02 -3.6475431173889045e-02 0.0000000000000000e+00  -6.1397447888621053e-02 -7.4382578687808398e-02 0.0000000000000000e+00  -1.1447489558734808e-01 -3.2913076905741197e-02 0.0000000000000000e+00  -7.7571742623428475e-02 -2.1859776686518399e-02 0.0000000000000000e+00  -1.3212444993840973e-02 1.1981698110411255e-01 0.0000000000000000e+00  -4.6860769228295957e-03 9.4081189117578116e-03 0.0000000000000000e+00  -1.0974357733614604e-02 4.7431364509296836e-03 0.0000000000000000e+00  -4.4146396546102355e-02 2.8094535200790215e-02 0.0000000000000000e+00  -1.1183409565746771e-02 -1.6856837795888716e-01 0.0000000000000000e+00  4.3901079489745948e-02 -1.6544371641169703e-01 0.0000000000000000e+00  1.6319494326055567e-01 -1.6502906981625526e-01 0.0000000000000000e+00  -2.9042190335426779e-02 -1.5723209227106892e-03 0.0000000000000000e+00  -2.2379856991242941e-03 2.2309045845693813e-03 0.0000000000000000e+00  -6.5134559500350769e-02 5.8103952557816661e-03 0.0000000000000000e+00  -7.9922169745104993e-02 -1.2418991937545945e-01 0.0000000000000000e+00  -8.8429453042840084e-02 -4.6881889515533813e-02 0.0000000000000000e+00  -3.3851610912234931e-02 -2.3225175580798132e-02 0.0000000000000000e+00  -3.0000980389066237e-03 1.2903284987736643e-01 0.0000000000000000e+00  3.4235738599504642e-02 1.2307915532136002e-01 0.0000000000000000e+00  -3.5365275994984615e-03 -8.1689767351571553e-03 0.0000000000000000e+00  -2.4349115592558731e-03 -2.4183559350437474e-03 0.0000000000000000e+00  -7.6637315888114128e-03 -3.0352946729796542e-03 0.0000000000000000e+00  -8.6750143282552043e-03 1.9738869670884654e-01 0.0000000000000000e+00  -8.1093893506911045e-03 -2.3015015965744873e-02 0.0000000000000000e+00  -4.8980528090844411e-02 -2.0091671659727126e-01 0.0000000000000000e+00  -7.7855094982572422e-03 -4.5870499355342730e-02 0.0000000000000000e+00  4.2021715177973723e-01 5.1926997630697087e-02 0.0000000000000000e+00  -1.0132526411982477e-01 1.1701275582881730e-01 0.0000000000000000e+00  -9.0207531050306936e-03 7.2215069863235323e-02 0.0000000000000000e+00  -1.0372466803233997e-02 -7.7463583354430751e-02 0.0000000000000000e+00  5.0404080815688694e-02 6.0021275929697755e-02 0.0000000000000000e+00  1.6050279317720897e-01 1.2554548954512118e-01 0.0000000000000000e+00  -9.8468100988039223e-02 -1.0366428462765584e-01 0.0000000000000000e+00  -2.3891084828223733e-02 -1.1735240455943285e-01 0.0000000000000000e+00  -6.2511436794231105e-03 1.6468644897829596e-01 0.0000000000000000e+00  -1.2757680603605320e-01 -5.1029604183962879e-02 0.0000000000000000e+00  -5.4076568911260330e-02 -2.1155766590683016e-02 0.0000000000000000e+00  -1.5798116461374707e-02 2.7371469370607204e-02 0.0000000000000000e+00  0.0000000000000000e+00 0.0000000000000000e+00 0.0000000000000000e+00  -4.7759289742883029e-02 7.3345687608827231e-02 0.0000000000000000e+00  -4.8867360486353206e-02 -1.5545849130995265e-01 0.0000000000000000e+00  7.3852539062500000e-01 0.0000000000000000e+00 0.0000000000000000e+00  -5.8250230916918291e-02 1.7134267227726807e-01 0.0000000000000000e+00  0.0000000000000000e+00 0.0000000000000000e+00 0.0000000000000000e+00  -9.0537912820326787e-03 4.3234047063400970e-02 0.0000000000000000e+00  -1.0450828102833810e-01 8.4776352887574652e-02 0.0000000000000000e+00  -8.0504448742633281e-02 4.1303639274779119e-02 0.0000000000000000e+00  -8.4067511734874839e-02 1.3722883519489340e-02 0.0000000000000000e+00  -1.1643531661897032e-01 1.3464529124345115e-02 0.0000000000000000e+00  -4.4139135368793554e-02 -9.0478450356647311e-02 0.0000000000000000e+00  2.3313484906092790e-02 -1.9005358210562642e-01 0.0000000000000000e+00  -1.0978770744378247e-01 -1.0793627070135209e-01 0.0000000000000000e+00  -5.3917086979550694e-02 1.1938596133684529e-01 0.0000000000000000e+00  3.2322365321065050e-01 1.1030711618509141e-01 0.0000000000000000e+00  3.7133789062500000e-01 0.0000000000000000e+00 0.0000000000000000e+00  -1.2575595932185291e-01 5.3499519819856470e-02 0.0000000000000000e+00  -7.8835862321063682e-02 -4.2383227331231786e-03 0.0000000000000000e+00  0.0000000000000000e+00 0.0000000000000000e+00 0.0000000000000000e+00  -3.4610937793771862e-02 4.4750561355531432e-02 0.0000000000000000e+00  9.6899414062500000e-01 0.0000000000000000e+00 0.0000000000000000e+00  3.5643066807024965e-01 -7.5331897333094727e-02 0.0000000000000000e+00  -2.3599683742544619e-02 -3.0071850037407615e-03 0.0000000000000000e+00  -4.6120191929833999e-02 1.6270980312466776e-02 0.0000000000000000e+00  -1.0534765171297557e-01 -1.3364446117628168e-01 0.0000000000000000e+00  -9.4848067972246791e-02 1.4112655911359515e-01 0.0000000000000000e+00  -1.4922710221707309e-02 -3.7047279345477787e-03 0.0000000000000000e+00  -4.3944940518217450e-02 -8.5382993306570478e-03 0.0000000000000000e+00  -1.1288041973765532e-01 -3.4037812400842166e-02 0.0000000000000000e+00  -9.3681570437089912e-02 3.4165832992270849e-02 0.0000000000000000e+00  -6.3702146225820197e-03 2.3400956199730972e-02 0.0000000000000000e+00  -1.3611897420512173e-01 -2.2561195670335404e-02 0.0000000000000000e+00  -8.1672141009604307e-02 6.7046051034525989e-02 0.0000000000000000e+00  -2.3533187152551427e-02 2.9658828932708184e-03 0.0000000000000000e+00  -4.3865818942724635e-02 -1.9970329328398252e-05 0.0000000000000000e+00  0.0000000000000000e+00 0.0000000000000000e+00 0.0000000000000000e+00  -2.4261640497968126e-02 5.4180223095360506e-04 0.0000000000000000e+00  -1.0857209381515343e-02 -1.2046697724056439e-01 0.0000000000000000e+00  -1.4033596240080218e-02 -1.0790758474471236e-01 0.0000000000000000e+00  5.4931640625000000e-02 0.0000000000000000e+00 0.0000000000000000e+00  3.5615321011920603e-01 -1.1064317289454781e-01 0.0000000000000000e+00  -1.4470674767518637e-02 1.5866428196841992e-01 0.0000000000000000e+00  -1.3104409977022429e-02 -2.0409158439773853e-02 0.0000000000000000e+00  -9.8573747901095382e-02 -2.5315810167331639e-02 0.0000000000000000e+00  -8.5936080412465834e-03 8.6801083411192290e-03 0.0000000000000000e+00  0.0000000000000000e+00 0.0000000000000000e+00 0.0000000000000000e+00  1.6214993619594112e-01 -1.3677093656957948e-01 0.0000000000000000e+00  -9.9697022402217908e-02 2.3734149376313098e-02 0.0000000000000000e+00  -1.3017554272141452e-01 5.4883663902072950e-02 0.0000000000000000e+00  -3.8674298817441645e-02 -5.6823411869585984e-02 0.0000000000000000e+00  -1.9155827520574299e-02 -1.0094720814285149e-02 0.0000000000000000e+00  0.0000000000000000e+00 0.0000000000000000e+00 0.0000000000000000e+00  -7.7149813490445168e-02 -9.6463394288985899e-02 0.0000000000000000e+00  3.1146069647166319e-03 -1.3081865707964949e-01 0.0000000000000000e+00  2.8579367228849340e-02 -5.7245047960293956e-02 0.0000000000000000e+00  -5.9384768716860452e-03 -2.8047633632427366e-02 0.0000000000000000e+00  0.0000000000000000e+00 0.0000000000000000e+00 0.0000000000000000e+00  0.0000000000000000e+00 0.0000000000000000e+00 0.0000000000000000e+00  5.4931640625000000e-02 0.0000000000000000e+00 0.0000000000000000e+00  0.0000000000000000e+00 0.0000000000000000e+00 0.0000000000000000e+00  -8.1716038444148500e-03 5.6632577269192665e-02 0.0000000000000000e+00  -2.7056953007380122e-02 6.9013856382249730e-02 0.0000000000000000e+00  -2.8029866850473449e-02 1.0796523707482363e-01 0.0000000000000000e+00  -1.2773616679075886e-02 2.7735498476294429e-03 0.0000000000000000e+00  -2.9325003277769907e-02 1.6384106283119298e-02 0.0000000000000000e+00  -7.4963677791274191e-02 -1.7910022385381907e-01 0.0000000000000000e+00  0.0000000000000000e+00 0.0000000000000000e+00 0.0000000000000000e+00  0.0000000000000000e+00 0.0000000000000000e+00 0.0000000000000000e+00  -2.6262037261344229e-02 -2.0177568002578483e-01 0.0000000000000000e+00  -6.1554652046831741e-02 3.7215947927086095e-02 0.0000000000000000e+00  -5.3467298210717822e-02 1.0479177270358324e-02 0.0000000000000000e+00  -4.7101951044720217e-02 9.3721631675169739e-02 0.0000000000000000e+00  -8.9504821198510387e-02 1.1379600422574181e-01 0.0000000000000000e+00  1.8763673589373610e-02 1.1772953019642611e-01 0.0000000000000000e+00  -6.2746160428297074e-02 1.4557368969349357e-01 0.0000000000000000e+00  4.5020039046548421e-01 4.6402961224782440e-03 0.0000000000000000e+00  -8.4001823896107265e-03 -5.8516347642117710e-02 0.0000000000000000e+00  7.3852539062500000e-01 0.0000000000000000e+00 0.0000000000000000e+00  3.7133789062500000e-01 0.0000000000000000e+00 0.0000000000000000e+00  0.0000000000000000e+00 0.0000000000000000e+00 0.0000000000000000e+00  9.6899414062500000e-01 0.0000000000000000e+00 0.0000000000000000e+00  0.0000000000000000e+00 0.0000000000000000e+00 0.0000000000000000e+00  0.0000000000000000e+00 0.0000000000000000e+00 0.0000000000000000e+00  0.0000000000000000e+00 0.0000000000000000e+00 0.0000000000000000e+00  0.0000000000000000e+00 0.0000000000000000e+00 0.0000000000000000e+00  0.0000000000000000e+00 0.0000000000000000e+00 0.0000000000000000e+00  0.0000000000000000e+00 0.0000000000000000e+00 0.0000000000000000e+00  0.0000000000000000e+00 0.0000000000000000e+00 0.0000000000000000e+00  0.0000000000000000e+00 0.0000000000000000e+00 0.0000000000000000e+00  0.0000000000000000e+00 0.0000000000000000e+00 0.0000000000000000e+00  0.0000000000000000e+00 0.0000000000000000e+00 0.0000000000000000e+00  0.0000000000000000e+00 0.0000000000000000e+00 0.0000000000000000e+00  0.0000000000000000e+00 0.0000000000000000e+00 0.0000000000000000e+00  -5.9772272193317183e-02 -1.8192532531256436e-01 0.0000000000000000e+00  -8.4990875636490153e-03 8.3669716031748387e-02 0.0000000000000000e+00  3.9695929349896963e-02 -8.7271738925320461e-02 0.0000000000000000e+00  -4.0068656525860433e-02 4.7420861822936804e-02 0.0000000000000000e+00  -5.0639054916074178e-02 1.8793339049502372e-01 0.0000000000000000e+00  -3.6932365288525969e-02 1.6504130819357055e-01 0.0000000000000000e+00  -1.2989278281230397e-02 1.9059632570889212e-01 0.0000000000000000e+00  7.9188767580678776e-02 1.6683077800933976e-01 0.0000000000000000e+00  -3.6900861073220922e-03 1.7514761969413869e-03 0.0000000000000000e+00  -3.4627044289730338e-03 1.2246084709146591e-02 0.0000000000000000e+00  -6.0717656532137031e-02 -1.3908169481879190e-01 0.0000000000000000e+00  2.0542144597703921e-01 4.1237542758465195e-02 0.0000000000000000e+00  -8.4074255426259487e-02 -6.9818966177811123e-02 0.0000000000000000e+00  -2.4572160525104511e-02 -8.1938688501259974e-02 0.0000000000000000e+00  -3.8175544471717015e-03 -1.6278984920535428e-01 0.0000000000000000e+00  -3.2000515164410423e-02 3.0638874759386012e-02 0.0000000000000000e+00  -2.3221700511645869e-02 -2.3432054287480682e-02 0.0000000000000000e+00  -1.1187588920230092e-01 6.9342550500027147e-02 0.0000000000000000e+00  -6.2943614023898004e-02 -1.4487308294175216e-02 0.0000000000000000e+00  7.3748659780826467e-02 -1.8637331115118305e-01 0.0000000000000000e+00  -7.1792782496907362e-02 -5.4651891018371521e-02 0.0000000000000000e+00  -2.0137166390527123e-02 -4.1072629501508313e-02 0.0000000000000000e+00  7.6825503993568356e-02 1.7434873862389186e-01 0.0000000000000000e+00  2.5347632663758229e-01 1.1813641278985640e-01 0.0000000000000000e+00  -4.1531568041759850e-02 -3.6602615920023868e-02 0.0000000000000000e+00  -3.2015825893754547e-02 -2.0045191921625677e-01 0.0000000000000000e+00  1.3404015764868676e-01 -9.0653945596762597e-02 0.0000000000000000e+00  -5.5220632748186595e-02 1.4252079753494656e-01 0.0000000000000000e+00  -3.6516189926724882e-02 8.3092118559313834e-03 0.0000000000000000e+00  -5.3071650468180687e-02 -5.3259986407488705e-02 0.0000000000000000e+00  -1.2459228681486398e-01 2.8285940731671271e-02 0.0000000000000000e+00  6.7784904275371514e-03 -1.8843758177417888e-01 0.0000000000000000e+00  1.1718078251566717e-01 -1.1212649387441014e-01 0.0000000000000000e+00  -1.2952459046406170e-01 -4.4259714515867646e-02 0.0000000000000000e+00  -8.6663965997778314e-02 -1.5242072880287036e-01 0.0000000000000000e+00  4.3889447765999356e-01 7.4443250706120095e-02 0.0000000000000000e+00  -1.8890002924382837e-02 9.7934237416818582e-04 0.0000000000000000e+00  -8.8997656749156662e-02 -1.3656207663499852e-02 0.0000000000000000e+00  -6.7051188245638410e-02 -3.0388842877559677e-02 0.0000000000000000e+00  -2.6652993667133508e-02 -1.2499389120927186e-01 0.0000000000000000e+00  -1.0091729263736586e-01 -1.3597856737571382e-01 0.0000000000000000e+00  2.8973662317519186e-03 7.2203410271764329e-04 0.0000000000000000e+00  -5.8861151903161664e-03 9.7299834664622706e-02 0.0000000000000000e+00  -1.1494156515145638e-01 -5.8322358562199812e-02 0.0000000000000000e+00  -1.1007905753966440e-01 -1.2243347514343828e-02 0.0000000000000000e+00  -1.2344527659296774e-01 -9.7068044463143929e-03 0.0000000000000000e+00  -6.6915421497960495e-02 -1.3732420713614890e-01 0.0000000000000000e+00  -1.1428156464418401e-01 5.8228535234826011e-02 0.0000000000000000e+00  -5.7119574204329039e-02 -1.1419306174568461e-01 0.0000000000000000e+00  2.8910556766692952e-01 -1.0869125639172175e-01 0.0000000000000000e+00  3.9188429320084955e-01 -9.8522851593400421e-02 0.0000000000000000e+00  -1.3573107471665591e-01 1.7117919609133472e-02 0.0000000000000000e+00  -4.6330911109744383e-02 4.0147188226270371e-02 0.0000000000000000e+00  -9.9413584021454227e-02 1.2306717156085355e-01 0.0000000000000000e+00  -1.0310086529996351e-01 -5.1157220172902217e-02 0.0000000000000000e+00  -1.1943101155133357e-02 1.5911627264429955e-02 0.0000000000000000e+00  -9.9775250901485758e-04 2.9149215209310674e-03 0.0000000000000000e+00  -1.1886666367573134e-01 8.9999598982426363e-02 0.0000000000000000e+00  -4.3515211583715040e-02 -7.3667378967382888e-02 0.0000000000000000e+00  4.1884320540449847e-02 1.8758421350743054e-01 0.0000000000000000e+00  -1.1556942744533565e-01 -8.0999490192755041e-02 0.0000000000000000e+00  -3.8532194650270470e-03 2.3600525665693917e-02 0.0000000000000000e+00  1.8218977978561590e-01 -1.5538829773376422e-01 0.0000000000000000e+00  -4.3789976889398570e-02 -4.2425311472569045e-03 0.0000000000000000e+00  -1.9185024673242675e-02 -1.9187766114700365e-04 0.0000000000000000e+00  -1.6318016972455072e-02 -8.3866800453348479e-04 0.0000000000000000e+00  -6.7223823709549352e-02 7.8958963698518611e-02 0.0000000000000000e+00  -8.6125012502542911e-02 2.7265667183233266e-02 0.0000000000000000e+00  5.9599275691408556e-02 1.5522353064455058e-01 0.0000000000000000e+00  1.1946225295771008e-01 1.0305034716031759e-01 0.0000000000000000e+00  -9.3387995724967754e-02 -1.0497701041318300e-01 0.0000000000000000e+00  -8.0990264051131619e-02 -1.4508898802275466e-01 0.0000000000000000e+00  -5.7435024650953192e-03 1.1131132538763776e-03 0.0000000000000000e+00  -1.9518258875145005e-02 7.7994227284733323e-03 0.0000000000000000e+00  -1.4537295813904401e-02 1.0100145842775382e-02 0.0000000000000000e+00  -1.1608856780227433e-01 -9.9547472404527187e-02 0.0000000000000000e+00  -8.7987219119812096e-02 -6.5713568752232138e-02 0.0000000000000000e+00  -7.4596809419208515e-02 1.6744604637747829e-01 0.0000000000000000e+00  -5.5083486962127420e-02 2.5786198002572314e-02 0.0000000000000000e+00  -2.4143517059910708e-02 1.6214701649468588e-01 0.0000000000000000e+00  -2.