<?xml version="1.0"?>
<VTKFile type="UnstructuredGrid"  version="0.1"  >
<UnstructuredGrid>
<Piece  NumberOfPoints="4984" NumberOfCells="9710">
<Points>
<DataArray  type="Float64"  NumberOfComponents="3"  format="ascii">0 1 0  0 0 0  1 0 0  1 1 0  0.5 0 0  1 0.5 0  0.5 1 0  0 0.5 0  0.5 0.5 0  0 0.25 0  0.25 0 0  0.25 1 0  0 0.75 0  1 0.25 0  0.75 0 0  1 0.75 0  0.75 1 0  0.7083333333333333 0.2916666666666667 0  0.2916666666666666 0.7083333333333334 0  0.375 0.25 0  0.75 0.625 0  0.2569444444444444 0.4652777777777778 0  0.5366379310344828 0.7535919540229885 0  0.1875 0.1875 0  0.8125 0.8125 0  0.869047619047619 0.375 0  0.1450441919191919 0.6052714646464646 0  0.375 0.8690476190476191 0  0.5526960784313725 0.1825980392156862 0  0.8385416666666666 0.1614583333333334 0  0.1614583333333333 0.8385416666666667 0  0.6736111111111112 0.4652777777777778 0  0.1367521367521368 0.3477564102564102 0  0.6570970491253563 0.8648656830417855 0  0.5102479397556124 0.3386260301221938 0  0.3654513888888889 0.5737847222222222 0  0.6929750044954185 0.1362784921584263 0  0.388576102743835 0.411911725237599 0  0.6091269841269842 0.5942460317460317 0  0.875 0.6875 0  0.427278890279516 0.119889445139758 0  0.8544456845238095 0.5213913690476191 0  0.125 0 0  0 0.125 0  1 0.875 0  0.875 1 0  0.1280008648150532 0.4769292340226777 0  0.2695382451711197 0.3321750950221553 0  0.7031567235715964 0.7447810921428012 0  0.625 0 0  0.375 0 0  0.125 1 0  0.875 0 0  0 0.375 0  0 0.625 0  1 0.375 0  0.375 1 0  1 0.125 0  0 0.875 0  0.625 1 0  1 0.625 0  0.2979288363930608 0.1201429454643536 0  0.410919540229885 0.7484605911330049 0  0.5325041980395562 0.878905151526474 0  0.4831670727569156 0.6331060043826487 0  0.1735997378973042 0.7204747378973043 0  0.2534919507575758 0.5772372159090909 0  0.2633928571428572 0.8876488095238095 0  0.8199404761904761 0.2730654761904762 0  0.75830270586982 0.3919383189517417 0  0.5750282248382511 0.4237522353023667 0  0.6008360210023379 0.2794828358598495 0  0.08163442644334186 0.6821295860397322 0  0.08333333333333333 0.1875 0  0.2028380815996574 0.08844602719988583 0  0.2766521142611967 0.2325436572164097 0  0.90625 0.78125 0  0.890625 0.890625 0  0.7545696325008384 0.8973565441669461 0  0.5625 0.08086590340834317 0  0.09077380952380953 0.09077380952380952 0  0.4610923478694773 0.209034015149656 0  0.7542527598351648 0.5248380520595106 0  0.6459235536037465 0.3619913988405765 0  0.7560381768882634 0.20506142233852 0  0.07073252688172042 0.8125 0  0.0924753097241701 0.9078102849914793 0  0.9292674731182795 0.1875 0  0.9075246902758297 0.09218971500852073 0  0.8125 0.07073252688172045 0  0.2400955776842301 0.7869705776842302 0  0.9121050213379069 0.2781978201831695 0  0.7916878157143976 0.7239689078571988 0  0.9345238095238094 0.4375 0  0.4375 0.9345238095238095 0  0.3725616989755203 0.6651895248862173 0  0.06536271996350887 0.5625 0  0.9348362560379583 0.5625 0  0.456646798987055 0.8277247094351965 0  0.1875 0.9355758238725954 0  0.6169761231634859 0.6939779188977889 0  0.6226854751147515 0.7827911461419014 0  0.3305695598137626 0.7901697871282585 0  0.5865305325818898 0.5101085479043448 0  0.6622701297028378 0.2177663989757395 0  0.1354166666666667 0.2591702279202279 0  0 0.3125 0  0.2094429575680048 0.3936361846162499 0  0.836666296419157 0.607917407161686 0  0.6875 1 0  0.214261555450504 0.6492551722020035 0  0 0.4375 0  0.07731537126068377 0.40625 0  0.3427725432967068 0.4879566233699599 0  0.3550792513951871 0.3331953632609953 0  0.4462473953896857 0.2887834789342508 0  0.4747801464819794 0.417386052030127 0  0.8229836475148948 0.4443292349237342 0  0.7322605135514757 0.8199240278289671 0  0.6756431877205955 0.5468989748126787 0  0.1968419507215863 0.5194573482612496 0  0.3285590277777778 0.9345238095238095 0  0.8125 1 0  0.4198917601920009 0.5134893045331258 0  0.5232405503206691 0.2595791787880157 0  1 0.9375 0  0.1987510870015086 0.3025185951894431 0  0.5625 1 0  0.6005390654136388 0.9228110509230952 0  0.6411254848194414 0.07704872765442942 0  0.3357233162523242 0.1855113224530532 0  0.6730653396610877 0.6393887462324165 0  0.310966987234063 0.6240019765311626 0  0.7368737836204349 0.07457755202327881 0  0.6192316414418171 0.1485238406378594 0  0.5432429670607106 0.678552703844006 0  0.4754371679695679 0.7103946803120881 0  0.07501324890749672 0.3043839897335739 0  0.5358146975860403 0.5688321463205916 0  0.3115271739500156 0.3982137365971444 0  0.3625191397122174 0.0767854603650549 0  0.5024029442563831 0.1264128223758444 0  0.4375 0 0  0.4699946908887376 0.06379961173775725 0  0.9375 0.71875 0  0.9272105898044465 0.635671179608893 0  0.9375 1 0  0.6690971819568612 0.9331530898202766 0  0.1073454944778885 0.7499206387638554 0  0.8699082999280406 0.2232403652524313 0  0.5773118091863964 0.3548027349159383 0  0.1354166666666667 0.1428571428571428 0  0.3125 0 0  0.8241684193077341 0.9257452995055244 0  0.4352314948354036 0.3586940847489378 0  0.4351301473778832 0.5819726043539077 0  0.8073232928518163 0.3419398170341962 0  0.7775949246947366 0.1298519409204575 0  0.6875 0 0  0.7413513991851041 0.457933324954483 0  0.939453125 0.841796875 0  0.5630355154606987 0.8171875156478349 0  0.9345238095238095 0.3461466592368577 0  0.9375 0 0  1 0.0625 0  0.0625 1 0  0 0.9375 0  0.06552178593177167 0.4969053669623468 0  0.1424866619031703 0.4130277709291224 0  0.1275287182444726 0.5422946908002588 0  0.2637686595586339 0.06413888464529549 0  0.2524263535491086 0.1697437503243817 0  0.7367218397988525 0.6888573970660841 0  0.0625 0 0  0 0.0625 0  0.8463594539285995 0.7578283617857982 0  0.3128751192101563 0.2851997374369947 0  0.4015281788351144 0.1806421385113692 0  0.1910251795116588 0.4553332197174453 0  0.287797471442006 0.5222621440543902 0  0.3962628745986055 0.8097380085535307 0  0.3505895299554843 0.7304878890838692 0  0.5019151500495276 0.9356042615328103 0  0.9374389419410134 0.4999931039076005 0  0.3125 1 0  0.1875 1 0  1 0.5625 0  0.4375 1 0  1 0.3125 0  1 0.4375 0  0.8125 0 0  1 0.1875 0  0.5625 0 0  0.1875 0 0  0 0.1875 0  0 0.5625 0  0 0.6875 0  0 0.8125 0  1 0.6875 0  1 0.8125 0  0.8021696218581627 0.6612893947866073 0  0.06154922295426143 0.6239401126946708 0  0.9359375 0.9359375 0  0.4666158024849896 0.7691515918155014 0  0.2318201265217025 0.7064974250277525 0  0.1565954253579966 0.6635489312486841 0  0.1598132503680848 0.7787147500325552 0  0.3146529991605639 0.8510876378205265 0  0.1461873209418733 0.05982804528877814 0  0.06109554988524315 0.2446551776247686 0  0.8054950308560754 0.5564226538848541 0  0.470541749491976 0.8853316336952531 0  0.6948472567465137 0.4042308563372457 0  0.8802828472348889 0.4658893256343853 0  0.6788075634946739 0.7974194205806069 0  0.2155048659603867 0.2428201584940968 0  0.8131223143423806 0.2132171049028394 0  0.4330798005432235 0.6671274900735726 0  0.6015279126162613 0.2187368078743274 0  0.8061636571464289 0.8703766630361714 0  0.7008230445061776 0.3478568388444072 0  0.8638466246958771 0.3147095987735538 0  0.204801534004265 0.8789209409594009 0  0.2449006736431132 0.9424182882803838 0  0.7611268409371427 0.2643056884799992 0  0.7552800864046191 0.7678006649959446 0  0.5983639638906616 0.864113435029236 0  0.1956559506814437 0.577281203577426 0  0.3527670268164207 0.1320469097565204 0  0.7530364577483248 0.3262386077083089 0  0.4535919187979363 0.4690107087451527 0  0.8824869791666666 0.8336588541666666 0  0.8814453125 0.9451171875 0  0.5582987942628019 0.622421666543858 0  0.6817532446064828 0.6939001801354731 0  0.3830295138888889 0.9450968952922078 0  0.4140603937012541 0.05211333372716105 0  0.5535864501303013 0.3060591985391672 0  0.6560130086346878 0.2729726562211558 0  0.890203140221684 0.5948314305427268 0  0.7043857725999024 0.593980890020804 0  0.5105843922695152 0.8016828014338627 0  0.05365910753708378 0.7315110031682004 0  0.616904573672261 0.4621186633436136 0  0.5338511646455415 0.387875898899613 0  0.5231769258947843 0.4477682463140762 0  0.650302973237622 0.7370722302085519 0  0.3927483139621257 0.4662414504529014 0  0.8034595960585199 0.4972538342758211 0  0.7738337841682438 0.9496376207663251 0  0.7193737507158268 0.954685447650112 0  0.482525916480686 0.5528257169991676 0  0.2533501157346781 0.2809495420003238 0  0.3118487924482243 0.5702930126570319 0  0.6257598847669529 0.4104163315430518 0  0.1354166666666667 0.1955605158730158 0  0.04166666666666666 0.15625 0  0.3956448985530264 0.6174149462065157 0  0.8102897701818546 0.3938784238208349 0  0.2641154190013625 0.8344469561943118 0  0.642852220770013 0.5068794586563659 0  0.05271458179508221 0.355846947336007 0  0.7021551360070266 0.8921457280225779 0  0.5692125776683765 0.1328512638850284 0  0.5206162811937602 0.04865158770992991 0  0.6001838442201555 0.04540556991297563 0  0.2597716608242787 0.4118346398477178 0  0.4040584599473195 0.3179589136784675 0  0.1480337679295207 0.8941560631483065 0  0.1344356707112281 0.9466251177415842 0  0.7114696411829317 0.4983917389078826 0  0.7585704698442475 0.5751926345944629 0  0.2189131956390871 0.04022068508159698 0  0.2476935455192043 0.1123642267635843 0  0.185995005654517 0.1365524537205238 0  0.6223414373308711 0.643380839165121 0  0.5732602596637543 0.7190051747306219 0  0.268358222364537 0.6586246524467934 0  0.3265879848129173 0.2369791782191225 0  0.1267095595787346 0.7034787238999181 0  0.1115202922226038 0.6421997933884982 0  0.3128688392940203 0.07260997451790079 0  0.550724900485678 0.9253360991633187 0  0.7142608810459105 0.2384904702214873 0  0.7045869185243887 0.1871826897887429 0  0.890625 0.734375 0  0.953125 0.765625 0  0.2111812642821677 0.8286209446459138 0  0.9590293078204457 0.09375 0  0.953431269039847 0.1435719386408004 0  0.04097069217955424 0.90625 0  0.04656873096015299 0.8564280613591996 0  0.1078743037981226 0.8541621766048062 0  0.8921256962018773 0.1458378233951939 0  0.8521576979194619 0.1084496634207678 0  0.8655663982740958 0.05464346096571447 0  0.04005659640905543 0.09375 0  0.1001448316533417 0.04246776244228261 
[...]
<PointData  Vectors="f_66-0"> 
<DataArray  type="Float64"  Name="f_66-0"  NumberOfComponents="3" format="ascii">0.0000000000000000e+00 0.0000000000000000e+00 0.0000000000000000e+00  0.0000000000000000e+00 0.0000000000000000e+00 0.0000000000000000e+00  0.0000000000000000e+00 0.0000000000000000e+00 0.0000000000000000e+00  0.0000000000000000e+00 0.0000000000000000e+00 0.0000000000000000e+00  0.0000000000000000e+00 0.0000000000000000e+00 0.0000000000000000e+00  0.0000000000000000e+00 0.0000000000000000e+00 0.0000000000000000e+00  1.0000000000000000e+00 0.0000000000000000e+00 0.0000000000000000e+00  0.0000000000000000e+00 0.0000000000000000e+00 0.0000000000000000e+00  -1.0401299455540763e-01 1.3207519505904011e-02 0.0000000000000000e+00  0.0000000000000000e+00 0.0000000000000000e+00 0.0000000000000000e+00  0.0000000000000000e+00 0.0000000000000000e+00 0.0000000000000000e+00  5.6250000000000000e-01 0.0000000000000000e+00 0.0000000000000000e+00  0.0000000000000000e+00 0.0000000000000000e+00 0.0000000000000000e+00  0.0000000000000000e+00 0.0000000000000000e+00 0.0000000000000000e+00  0.0000000000000000e+00 0.0000000000000000e+00 0.0000000000000000e+00  0.0000000000000000e+00 0.0000000000000000e+00 0.0000000000000000e+00  5.6250000000000000e-01 0.0000000000000000e+00 0.0000000000000000e+00  -5.2321841851029886e-02 -3.2488699493189173e-02 0.0000000000000000e+00  -4.3616567861793597e-02 1.4398588085791703e-01 0.0000000000000000e+00  -5.1494294914782038e-02 1.9230048404820534e-02 0.0000000000000000e+00  -6.8274204973904642e-02 -1.1979164977929864e-01 0.0000000000000000e+00  -5.2284524648539728e-02 7.6614236443103403e-02 0.0000000000000000e+00  -5.9134901472801461e-02 -1.7642450325364777e-02 0.0000000000000000e+00  -1.5196337336181117e-02 1.4015496829194084e-02 0.0000000000000000e+00  -1.3322810468728880e-02 -1.5204347365135779e-01 0.0000000000000000e+00  -2.3251528953655003e-02 -5.1965518691109769e-02 0.0000000000000000e+00  -2.2203093798315181e-02 9.9644798268580040e-02 0.0000000000000000e+00  6.5844434092433873e-02 1.4289101007423557e-01 0.0000000000000000e+00  -4.7630414051023445e-02 -3.2161927452752448e-03 0.0000000000000000e+00  -1.2426686296966246e-02 -1.1325942770078758e-02 0.0000000000000000e+00  1.0627747793556854e-02 1.2705206411653025e-01 0.0000000000000000e+00  -8.7794918269985450e-02 -5.8691889935262205e-02 0.0000000000000000e+00  -1.5549513143532218e-02 3.6351037933546125e-02 0.0000000000000000e+00  9.1328073509388027e-02 -1.1491759906986390e-01 0.0000000000000000e+00  -7.9504769217986215e-02 3.0077730739963382e-03 0.0000000000000000e+00  -8.5850436598095561e-02 8.5804874787071397e-02 0.0000000000000000e+00  -2.7806528276704313e-02 -8.2918748399865676e-03 0.0000000000000000e+00  -7.9088524428221188e-02 4.2780109029394192e-02 0.0000000000000000e+00  -9.9152423856054966e-02 -4.9955749079540757e-02 0.0000000000000000e+00  -2.4949126681034758e-02 -1.5079133153480062e-01 0.0000000000000000e+00  -3.1721898621612489e-02 3.6295675478841428e-03 0.0000000000000000e+00  -4.3739749334052960e-02 -1.0431688122779958e-01 0.0000000000000000e+00  0.0000000000000000e+00 0.0000000000000000e+00 0.0000000000000000e+00  0.0000000000000000e+00 0.0000000000000000e+00 0.0000000000000000e+00  0.0000000000000000e+00 0.0000000000000000e+00 0.0000000000000000e+00  1.9140625000000000e-01 0.0000000000000000e+00 0.0000000000000000e+00  -1.7730081588401399e-02 6.2363386847391442e-02 0.0000000000000000e+00  -4.3724033510653591e-02 4.2114620061724943e-02 0.0000000000000000e+00  -3.8733211377571228e-02 -1.1716703125587363e-01 0.0000000000000000e+00  0.0000000000000000e+00 0.0000000000000000e+00 0.0000000000000000e+00  0.0000000000000000e+00 0.0000000000000000e+00 0.0000000000000000e+00  1.9140625000000000e-01 0.0000000000000000e+00 0.0000000000000000e+00  0.0000000000000000e+00 0.0000000000000000e+00 0.0000000000000000e+00  0.0000000000000000e+00 0.0000000000000000e+00 0.0000000000000000e+00  0.0000000000000000e+00 0.0000000000000000e+00 0.0000000000000000e+00  0.0000000000000000e+00 0.0000000000000000e+00 0.0000000000000000e+00  8.7890625000000000e-01 0.0000000000000000e+00 0.0000000000000000e+00  0.0000000000000000e+00 0.0000000000000000e+00 0.0000000000000000e+00  0.0000000000000000e+00 0.0000000000000000e+00 0.0000000000000000e+00  8.7890625000000000e-01 0.0000000000000000e+00 0.0000000000000000e+00  0.0000000000000000e+00 0.0000000000000000e+00 0.0000000000000000e+00  -2.1173522190206399e-02 6.7996655909868756e-03 0.0000000000000000e+00  -5.5317860527170443e-02 1.0073826670925747e-01 0.0000000000000000e+00  1.0798648357427236e-01 -3.1923793045637298e-02 0.0000000000000000e+00  -1.0101975765677007e-01 3.0313082566692035e-02 0.0000000000000000e+00  -1.7718587241861997e-02 1.3323092242139511e-01 0.0000000000000000e+00  -5.3471453079633871e-02 1.1006767972287129e-01 0.0000000000000000e+00  6.4175736725252855e-02 1.4990176213852369e-01 0.0000000000000000e+00  -2.5840821035205366e-02 -3.1900417047343629e-02 0.0000000000000000e+00  -5.7653958033459470e-02 -6.1122639988164661e-02 0.0000000000000000e+00  -9.4048463416435593e-02 -1.8208044843925780e-02 0.0000000000000000e+00  -6.4882986294357958e-02 -1.4812850493365131e-02 0.0000000000000000e+00  -7.6537571043188085e-03 8.1063381411869154e-02 0.0000000000000000e+00  -3.5134102816104019e-03 7.0992821433288247e-03 0.0000000000000000e+00  -8.3836971304839317e-03 3.6780636544364175e-03 0.0000000000000000e+00  -3.3655375005565480e-02 2.2387899411244007e-02 0.0000000000000000e+00  5.0728978427388906e-03 -1.7037757345960106e-01 0.0000000000000000e+00  4.2766280423061930e-02 -2.0133649281634702e-01 0.0000000000000000e+00  1.3902290667387696e-01 -9.9104769618208327e-02 0.0000000000000000e+00  -2.4095816144243019e-02 -1.0005838617644651e-03 0.0000000000000000e+00  -1.6902867993809007e-03 1.6889527409151854e-03 0.0000000000000000e+00  -5.2022201375340874e-02 6.2621098998869480e-03 0.0000000000000000e+00  -7.3817017959723133e-02 -9.6193548201994175e-02 0.0000000000000000e+00  -7.5913867735365251e-02 -3.3587342021125968e-02 0.0000000000000000e+00  -2.9995953744917658e-02 -1.9437686768556547e-02 0.0000000000000000e+00  -3.3015225101994533e-03 8.2927177534978844e-02 0.0000000000000000e+00  1.0123503644224261e-02 8.0391086117986635e-02 0.0000000000000000e+00  -3.2754873543317299e-03 -7.5038498413478837e-03 0.0000000000000000e+00  -2.2411300374330580e-03 -2.2154437791690566e-03 0.0000000000000000e+00  -6.8783480368506357e-03 -2.6516262380079500e-03 0.0000000000000000e+00  -3.2520060621210730e-03 1.5586339377674102e-01 0.0000000000000000e+00  -7.8371372475859440e-03 -2.1258818800994783e-02 0.0000000000000000e+00  -4.6030760152508239e-02 -1.5372417026457380e-01 0.0000000000000000e+00  -9.2494446994544934e-03 -4.6013380650938629e-02 0.0000000000000000e+00  3.3163824292359967e-01 6.2595099249999064e-02 0.0000000000000000e+00  -7.7226539442539557e-02 1.0585500739267320e-01 0.0000000000000000e+00  -5.9966675945508068e-03 5.1136799794421352e-02 0.0000000000000000e+00  -1.6011660825685593e-02 -8.5837612249917650e-02 0.0000000000000000e+00  3.2199313747544402e-03 6.9040627638059252e-02 0.0000000000000000e+00  7.8447801283487648e-02 9.9620738843711851e-02 0.0000000000000000e+00  -7.5067628443402062e-02 -7.0189864894988088e-02 0.0000000000000000e+00  -1.9644203643806299e-02 -9.1732675660433319e-02 0.0000000000000000e+00  -1.1631850696784405e-02 1.5386391327648402e-01 0.0000000000000000e+00  -1.0326928090481627e-01 -2.8902548269580997e-02 0.0000000000000000e+00  -4.6267307306112969e-02 -1.6245118563726988e-02 0.0000000000000000e+00  -1.1736787483298346e-02 2.0717436916718655e-02 0.0000000000000000e+00  0.0000000000000000e+00 0.0000000000000000e+00 0.0000000000000000e+00  -3.4601624613536532e-02 5.6071621884574541e-02 0.0000000000000000e+00  -4.7225743704005015e-02 -1.3093000378930786e-01 0.0000000000000000e+00  7.3852539062500000e-01 0.0000000000000000e+00 0.0000000000000000e+00  -3.6636232664234068e-02 1.2855534304829197e-01 0.0000000000000000e+00  0.0000000000000000e+00 0.0000000000000000e+00 0.0000000000000000e+00  -6.4523510930445619e-03 3.1788294408889389e-02 0.0000000000000000e+00  -7.7335081305685227e-02 7.0937553679568832e-02 0.0000000000000000e+00  -6.1495313723120337e-02 3.4743590769043854e-02 0.0000000000000000e+00  -6.6362233277812335e-02 1.3836066806799878e-02 0.0000000000000000e+00  -9.1618862872475407e-02 1.7715719125150166e-02 0.0000000000000000e+00  -4.5709502184490179e-02 -7.9854467466358034e-02 0.0000000000000000e+00  2.4531049612390287e-02 -1.1356245448194281e-01 0.0000000000000000e+00  -9.1352572881449934e-02 -7.4689105119901025e-02 0.0000000000000000e+00  -3.6888145500047438e-02 8.9406680850225448e-02 0.0000000000000000e+00  2.1420268295994713e-01 1.2137540875120587e-01 0.0000000000000000e+00  3.7133789062500000e-01 0.0000000000000000e+00 0.0000000000000000e+00  -9.5990599271725124e-02 5.0951019986367828e-02 0.0000000000000000e+00  -6.3989760903865739e-02 -6.5248327828480593e-04 0.0000000000000000e+00  0.0000000000000000e+00 0.0000000000000000e+00 0.0000000000000000e+00  -2.5667944956369079e-02 3.4356600090574368e-02 0.0000000000000000e+00  9.6899414062499989e-01 0.0000000000000000e+00 0.0000000000000000e+00  2.7234818272971340e-01 -9.6442824805316768e-02 0.0000000000000000e+00  -2.0058253173927516e-02 -2.3098184532150709e-03 0.0000000000000000e+00  -3.5805103711072456e-02 1.3459331440281698e-02 0.0000000000000000e+00  -8.1312381999125702e-02 -9.0907163510811434e-02 0.0000000000000000e+00  -6.7217480275343758e-02 1.1674845692321062e-01 0.0000000000000000e+00  -1.3071303187469872e-02 -3.0934935239090621e-03 0.0000000000000000e+00  -3.6965733556359869e-02 -6.2816424026475937e-03 0.0000000000000000e+00  -9.0574804089440922e-02 -1.5771423155634186e-02 0.0000000000000000e+00  -8.1308043176341327e-02 4.0860795499314227e-02 0.0000000000000000e+00  -4.6741647588278926e-03 1.7462274855406655e-02 0.0000000000000000e+00  -1.0699218161182451e-01 -4.9151770948328592e-03 0.0000000000000000e+00  -6.0830753672358337e-02 5.4346671877152287e-02 0.0000000000000000e+00  -1.8532519985912859e-02 2.5138593642119829e-03 0.0000000000000000e+00  -3.5657841434714038e-02 6.6059423520079929e-04 0.0000000000000000e+00  0.0000000000000000e+00 0.0000000000000000e+00 0.0000000000000000e+00  -1.9639530038031910e-02 6.2222741182600845e-04 0.0000000000000000e+00  -4.0988226935019514e-03 -1.2392161127184959e-01 0.0000000000000000e+00  -2.1269996790527278e-02 -1.2052328006406771e-01 0.0000000000000000e+00  5.4931640625000000e-02 0.0000000000000000e+00 0.0000000000000000e+00  2.7119665861912989e-01 -9.8391512713075571e-02 0.0000000000000000e+00  -7.4368173929206952e-03 1.0549826288714666e-01 0.0000000000000000e+00  -1.2135685019963172e-02 -1.8314888077337360e-02 0.0000000000000000e+00  -8.1524783971946069e-02 -1.4999851077696661e-02 0.0000000000000000e+00  -6.4933036309695099e-03 6.6145138313522360e-03 0.0000000000000000e+00  0.0000000000000000e+00 0.0000000000000000e+00 0.0000000000000000e+00  1.6311977442915479e-01 -1.0875885290672729e-01 0.0000000000000000e+00  -7.7817980038539861e-02 2.3200717653597339e-02 0.0000000000000000e+00  -1.0013432617174922e-01 5.5047117948910387e-02 0.0000000000000000e+00  -3.6951193586854267e-02 -4.9334271986928697e-02 0.0000000000000000e+00  -1.6954928193710528e-02 -8.6073376083246125e-03 0.0000000000000000e+00  0.0000000000000000e+00 0.0000000000000000e+00 0.0000000000000000e+00  -7.1931569964408568e-02 -7.5962250655970356e-02 0.0000000000000000e+00  8.9881452230863215e-03 -1.3469421450631547e-01 0.0000000000000000e+00  -7.1523723003091703e-04 -5.5662612483539743e-02 0.0000000000000000e+00  -6.1679319755191990e-03 -2.6768647552764532e-02 0.0000000000000000e+00  0.0000000000000000e+00 0.0000000000000000e+00 0.0000000000000000e+00  0.0000000000000000e+00 0.0000000000000000e+00 0.0000000000000000e+00  5.4931640625000000e-02 0.0000000000000000e+00 0.0000000000000000e+00  0.0000000000000000e+00 0.0000000000000000e+00 0.0000000000000000e+00  -5.6365053703619555e-03 4.0842733114498632e-02 0.0000000000000000e+00  -1.9233265150459752e-02 5.1326369204053715e-02 0.0000000000000000e+00  -1.8551323761029741e-02 7.7775874616904259e-02 0.0000000000000000e+00  -9.8598516643648125e-03 2.2021893183825064e-03 0.0000000000000000e+00  -2.2443861071789466e-02 1.2935408416776786e-02 0.0000000000000000e+00  -5.8285564677907964e-02 -1.2744176103241295e-01 0.0000000000000000e+00  0.0000000000000000e+00 0.0000000000000000e+00 0.0000000000000000e+00  0.0000000000000000e+00 0.0000000000000000e+00 0.0000000000000000e+00  -3.7501558506615518e-02 -1.8646959728165249e-01 0.0000000000000000e+00  -4.6886980208480443e-02 3.0242540640342191e-02 0.0000000000000000e+00  -4.2154239430431825e-02 9.2989008467007535e-03 0.0000000000000000e+00  -3.3196401026904930e-02 7.0553475241697514e-02 0.0000000000000000e+00  -6.3945944957316703e-02 9.0783678142710045e-02 0.0000000000000000e+00  -8.0349936181990708e-03 1.2418104754612033e-01 0.0000000000000000e+00  -5.0086496793994240e-02 1.3304910817250290e-01 0.0000000000000000e+00  3.7136658126726124e-01 -6.1604411215674228e-04 0.0000000000000000e+00  -1.1369643617764531e-02 -6.1761713932887728e-02 0.0000000000000000e+00  7.3852539062500000e-01 0.0000000000000000e+00 0.0000000000000000e+00  3.7133789062500000e-01 0.0000000000000000e+00 0.0000000000000000e+00  0.0000000000000000e+00 0.0000000000000000e+00 0.0000000000000000e+00  9.6899414062500011e-01 0.0000000000000000e+00 0.0000000000000000e+00  0.0000000000000000e+00 0.0000000000000000e+00 0.0000000000000000e+00  0.0000000000000000e+00 0.0000000000000000e+00 0.0000000000000000e+00  0.0000000000000000e+00 0.0000000000000000e+00 0.0000000000000000e+00  0.0000000000000000e+00 0.0000000000000000e+00 0.0000000000000000e+00  0.0000000000000000e+00 0.0000000000000000e+00 0.0000000000000000e+00  0.0000000000000000e+00 0.0000000000000000e+00 0.0000000000000000e+00  0.0000000000000000e+00 0.0000000000000000e+00 0.0000000000000000e+00  0.0000000000000000e+00 0.0000000000000000e+00 0.0000000000000000e+00  0.0000000000000000e+00 0.0000000000000000e+00 0.0000000000000000e+00  0.0000000000000000e+00 0.0000000000000000e+00 0.0000000000000000e+00  0.0000000000000000e+00 0.0000000000000000e+00 0.0000000000000000e+00  0.0000000000000000e+00 0.0000000000000000e+00 0.0000000000000000e+00  -5.0110192292884805e-02 -1.4277602370566581e-01 0.0000000000000000e+00  -5.3750741263693834e-03 5.8027198034552051e-02 0.0000000000000000e+00  2.6812100784947512e-02 -1.1887109393137697e-01 0.0000000000000000e+00  -5.1057402323709589e-02 5.3303276074270281e-02 0.0000000000000000e+00  -3.0519722697495293e-02 1.4411760649008212e-01 0.0000000000000000e+00  -2.1739860738072835e-02 1.1718169919221567e-01 0.0000000000000000e+00  -5.2852489683081552e-03 1.3224504274636051e-01 0.0000000000000000e+00  4.0448222223031807e-02 1.6186336315573277e-01 0.0000000000000000e+00  -2.7986540486638696e-03 1.3373938896971682e-03 0.0000000000000000e+00  -2.5722733131992239e-03 9.1836364483777327e-03 0.0000000000000000e+00  -5.9815077906890293e-02 -1.1433499924935980e-01 0.0000000000000000e+00  1.1862371491247574e-01 4.9786859219350409e-02 0.0000000000000000e+00  -7.4835439543981766e-02 -5.2844377822050113e-02 0.0000000000000000e+00  -2.8313147155588358e-02 -7.8270024185010459e-02 0.0000000000000000e+00  3.8199580280627778e-03 -1.1282392848451001e-01 0.0000000000000000e+00  -2.4090447742840599e-02 2.3766541689095023e-02 0.0000000000000000e+00  -2.1048499117860182e-02 -2.0362376727477881e-02 0.0000000000000000e+00  -8.9442797567571883e-02 6.9608019590866849e-02 0.0000000000000000e+00  -5.2611118391709087e-02 -1.0090832933751057e-02 0.0000000000000000e+00  8.0417280527539159e-02 -1.2427350417762408e-01 0.0000000000000000e+00  -6.3752719880305286e-02 -4.2492937980955589e-02 0.0000000000000000e+00  -1.9586655840299234e-02 -3.7189873557640349e-02 0.0000000000000000e+00  3.9614258132344773e-02 1.3273118601888137e-01 0.0000000000000000e+00  1.4673497877167016e-01 1.0962946956199367e-01 0.0000000000000000e+00  -3.7399508624202812e-02 -3.0631587281600297e-02 0.0000000000000000e+00  -3.0726262704850633e-02 -1.3282294127713379e-01 0.0000000000000000e+00  8.2735254377608008e-02 -9.7749132596229457e-02 0.0000000000000000e+00  -3.6385115822490439e-02 1.0588668343240157e-01 0.0000000000000000e+00  -2.8596089476680339e-02 6.9733091984020504e-03 0.0000000000000000e+00  -4.8527984535596480e-02 -4.3996575891270109e-02 0.0000000000000000e+00  -9.6704951949418069e-02 3.0725104388505228e-02 0.0000000000000000e+00  -1.2597360581650499e-02 -2.2979340409943097e-01 0.0000000000000000e+00  1.2804976564214030e-01 -1.0551929527895165e-01 0.0000000000000000e+00  -1.0128507168328339e-01 -2.1970617067067037e-02 0.0000000000000000e+00  -6.4348873435154649e-02 -1.0427277156506588e-01 0.0000000000000000e+00  3.4419443441559766e-01 8.8455411148218449e-02 0.0000000000000000e+00  -1.5078931971970000e-02 8.8932869283809234e-04 0.0000000000000000e+00  -7.2940968374826012e-02 -7.0702675620323927e-03 0.0000000000000000e+00  -5.7483112546399574e-02 -2.2832417442279682e-02 0.0000000000000000e+00  -3.4167697367464930e-02 -1.2240468492456384e-01 0.0000000000000000e+00  -8.2446861095835836e-02 -9.5994780850994638e-02 0.0000000000000000e+00  -2.5682257567298725e-02 5.1316307894932718e-03 0.0000000000000000e+00  -3.5842029353713107e-03 6.4580122283595623e-02 0.0000000000000000e+00  -9.5938421565487861e-02 -3.7400568316853004e-02 0.0000000000000000e+00  -8.9025496830635681e-02 -3.1122337412447642e-03 0.0000000000000000e+00  -9.8704075199526287e-02 1.2660099850651410e-03 0.0000000000000000e+00  -4.8067679829346385e-02 -9.6143263926665112e-02 0.0000000000000000e+00  -8.6645323868506319e-02 5.1984575340214174e-02 0.0000000000000000e+00  -5.8469265105663498e-02 -9.6763709082321459e-02 0.0000000000000000e+00  2.6151964533199118e-01 -8.6165680681691656e-02 0.0000000000000000e+00  3.2070892893335923e-01 -6.8195643057409230e-02 0.0000000000000000e+00  -1.0575587293201091e-01 2.5477817797415057e-02 0.0000000000000000e+00  -3.4865270841522501e-02 3.1565406731103647e-02 0.0000000000000000e+00  -7.1200775636422284e-02 1.0079367912993138e-01 0.0000000000000000e+00  -8.7302388232831124e-02 -3.4416604822790520e-02 0.0000000000000000e+00  -8.9709865016414508e-03 1.2098410560551727e-02 0.0000000000000000e+00  -7.5032318150148984e-04 2.1952282610446083e-03 0.0000000000000000e+00  -9.0376478231829982e-02 8.2805239683586385e-02 0.0000000000000000e+00  -4.2984744723670032e-02 -6.4151556302202276e-02 0.0000000000000000e+00  2.4232877700806840e-02 1.5961697794061216e-01 0.0000000000000000e+00  -9.6393812776043863e-02 -5.4001495762085037e-02 0.0000000000000000e+00  -2.7961579165701410e-03 1.7475964141682485e-02 0.0000000000000000e+00  1.4423453940791636e-01 -1.0577392728670239e-01 0.0000000000000000e+00  -3.6280070485252634e-02 -2.7511867292513361e-03 0.0000000000000000e+00  -1.5770242939841927e-02 -4.0053058845504943e-05 0.0000000000000000e+00  -1.3740622300005662e-02 -6.0704649814841063e-04 0.0000000000000000e+00  -4.9093319860717008e-02 6.1844799078821067e-02 0.0000000000000000e+00  -6.6889093209200307e-02 2.4482943461029374e-02 0.0000000000000000e+00  2.5474255698651735e-02 1.0514548951356932e-01 0.0000000000000000e+00  6.3856241811792530e-02 7.5838756073374550e-02 0.0000000000000000e+00  -8.2992256898382091e-02 -7.7800733582385651e-02 0.0000000000000000e+00  -7.1503516335853168e-02 -1.1016070630298316e-01 0.0000000000000000e+00  -4.3975709999779424e-03 8.6654273909470415e-04 0.0000000000000000e+00  -1.4999211806966010e-02 6.1505587441079528e-03 0.0000000000000000e+00  -1.1050600358923909e-02 7.7923662487092661e-03 0.0000000000000000e+00  -8.9237280036923772e-02 -6.4873301464284730e-02 0.0000000000000000e+00  -7.1984506942753185e-02 -4.4280440586053682e-02 0.0000000000000000e+00  -4.9739531679896719e-02 1.3322256390669368e-01 0.0000000000000000e+00  -4.2404435971536439e-02 2.1172851862934512e-02 0.0000000000000000e+00  -1.3187996763739551e-02 1.1115786947352428e-01 0.0000000000000000e+00  -1