<?xml version="1.0"?>
<VTKFile type="UnstructuredGrid"  version="0.1"  >
<UnstructuredGrid>
<Piece  NumberOfPoints="3711" NumberOfCells="7164">
<Points>
<DataArray  type="Float64"  NumberOfComponents="3"  format="ascii">0 1 0  0 0 0  1 0 0  1 1 0  0.5 0 0  1 0.5 0  0.5 1 0  0 0.5 0  0.5 0.5 0  0 0.25 0  0.25 0 0  0.25 1 0  0 0.75 0  1 0.25 0  0.75 0 0  1 0.75 0  0.75 1 0  0.7083333333333333 0.2916666666666667 0  0.2916666666666666 0.7083333333333334 0  0.375 0.25 0  0.75 0.625 0  0.2569444444444444 0.4652777777777778 0  0.5366379310344828 0.7535919540229885 0  0.1875 0.1875 0  0.8125 0.8125 0  0.869047619047619 0.375 0  0.1450441919191919 0.6052714646464646 0  0.375 0.8690476190476191 0  0.5526960784313725 0.1825980392156862 0  0.8385416666666666 0.1614583333333334 0  0.1614583333333333 0.8385416666666667 0  0.6736111111111112 0.4652777777777778 0  0.1367521367521368 0.3477564102564102 0  0.6570970491253563 0.8648656830417855 0  0.5102479397556124 0.3386260301221938 0  0.3654513888888889 0.5737847222222222 0  0.6929750044954185 0.1362784921584263 0  0.388576102743835 0.411911725237599 0  0.6091269841269842 0.5942460317460317 0  0.875 0.6875 0  0.427278890279516 0.119889445139758 0  0.8544456845238095 0.5213913690476191 0  0.125 0 0  0 0.125 0  1 0.875 0  0.875 1 0  0.1280008648150532 0.4769292340226777 0  0.2695382451711197 0.3321750950221553 0  0.7031567235715964 0.7447810921428012 0  0.625 0 0  0.375 0 0  0.125 1 0  0.875 0 0  0 0.375 0  0 0.625 0  1 0.375 0  0.375 1 0  1 0.125 0  0 0.875 0  0.625 1 0  1 0.625 0  0.2979288363930608 0.1201429454643536 0  0.410919540229885 0.7484605911330049 0  0.5325041980395562 0.878905151526474 0  0.4831670727569156 0.6331060043826487 0  0.1735997378973042 0.7204747378973043 0  0.2534919507575758 0.5772372159090909 0  0.2633928571428572 0.8876488095238095 0  0.8199404761904761 0.2730654761904762 0  0.75830270586982 0.3919383189517417 0  0.5750282248382511 0.4237522353023667 0  0.6008360210023379 0.2794828358598495 0  0.08163442644334186 0.6821295860397322 0  0.08333333333333333 0.1875 0  0.2028380815996574 0.08844602719988583 0  0.2766521142611967 0.2325436572164097 0  0.90625 0.78125 0  0.890625 0.890625 0  0.7545696325008384 0.8973565441669461 0  0.5625 0.08086590340834317 0  0.09077380952380953 0.09077380952380952 0  0.4610923478694773 0.209034015149656 0  0.7542527598351648 0.5248380520595106 0  0.6459235536037465 0.3619913988405765 0  0.7560381768882634 0.20506142233852 0  0.07073252688172042 0.8125 0  0.0924753097241701 0.9078102849914793 0  0.9292674731182795 0.1875 0  0.9075246902758297 0.09218971500852073 0  0.8125 0.07073252688172045 0  0.2400955776842301 0.7869705776842302 0  0.9121050213379069 0.2781978201831695 0  0.7916878157143976 0.7239689078571988 0  0.9345238095238094 0.4375 0  0.4375 0.9345238095238095 0  0.3725616989755203 0.6651895248862173 0  0.06536271996350887 0.5625 0  0.9348362560379583 0.5625 0  0.456646798987055 0.8277247094351965 0  0.1875 0.9355758238725954 0  0.6169761231634859 0.6939779188977889 0  0.6226854751147515 0.7827911461419014 0  0.3305695598137626 0.7901697871282585 0  0.5865305325818898 0.5101085479043448 0  0.6622701297028378 0.2177663989757395 0  0.1354166666666667 0.2591702279202279 0  0 0.3125 0  0.2094429575680048 0.3936361846162499 0  0.836666296419157 0.607917407161686 0  0.6875 1 0  0.214261555450504 0.6492551722020035 0  0 0.4375 0  0.07731537126068377 0.40625 0  0.3427725432967068 0.4879566233699599 0  0.3550792513951871 0.3331953632609953 0  0.4462473953896857 0.2887834789342508 0  0.4747801464819794 0.417386052030127 0  0.8229836475148948 0.4443292349237342 0  0.7322605135514757 0.8199240278289671 0  0.6756431877205955 0.5468989748126787 0  0.1968419507215863 0.5194573482612496 0  0.3285590277777778 0.9345238095238095 0  0.8125 1 0  0.4198917601920009 0.5134893045331258 0  0.5232405503206691 0.2595791787880157 0  1 0.9375 0  0.1987510870015086 0.3025185951894431 0  0.5625 1 0  0.6005390654136388 0.9228110509230952 0  0.6411254848194414 0.07704872765442942 0  0.3357233162523242 0.1855113224530532 0  0.6730653396610877 0.6393887462324165 0  0.310966987234063 0.6240019765311626 0  0.7368737836204349 0.07457755202327881 0  0.6192316414418171 0.1485238406378594 0  0.5432429670607106 0.678552703844006 0  0.4754371679695679 0.7103946803120881 0  0.07501324890749672 0.3043839897335739 0  0.5358146975860403 0.5688321463205916 0  0.3115271739500156 0.3982137365971444 0  0.3625191397122174 0.0767854603650549 0  0.5024029442563831 0.1264128223758444 0  0.4375 0 0  0.4699946908887376 0.06379961173775725 0  0.9375 0.71875 0  0.9272105898044465 0.635671179608893 0  0.9375 1 0  0.6690971819568612 0.9331530898202766 0  0.1073454944778885 0.7499206387638554 0  0.8699082999280406 0.2232403652524313 0  0.5773118091863964 0.3548027349159383 0  0.1354166666666667 0.1428571428571428 0  0.3125 0 0  0.8241684193077341 0.9257452995055244 0  0.4352314948354036 0.3586940847489378 0  0.4351301473778832 0.5819726043539077 0  0.8073232928518163 0.3419398170341962 0  0.7775949246947366 0.1298519409204575 0  0.6875 0 0  0.7413513991851041 0.457933324954483 0  0.939453125 0.841796875 0  0.5630355154606987 0.8171875156478349 0  0.9345238095238095 0.3461466592368577 0  0.9375 0 0  1 0.0625 0  0.0625 1 0  0 0.9375 0  0.06552178593177167 0.4969053669623468 0  0.1424866619031703 0.4130277709291224 0  0.1275287182444726 0.5422946908002588 0  0.2637686595586339 0.06413888464529549 0  0.2524263535491086 0.1697437503243817 0  0.7367218397988525 0.6888573970660841 0  0.0625 0 0  0 0.0625 0  0.8463594539285995 0.7578283617857982 0  0.3128751192101563 0.2851997374369947 0  0.4015281788351144 0.1806421385113692 0  0.1910251795116588 0.4553332197174453 0  0.287797471442006 0.5222621440543902 0  0.3962628745986055 0.8097380085535307 0  0.3505895299554843 0.7304878890838692 0  0.5019151500495276 0.9356042615328103 0  0.9374389419410134 0.4999931039076005 0  0.3125 1 0  0.1875 1 0  1 0.5625 0  0.4375 1 0  1 0.3125 0  1 0.4375 0  0.8125 0 0  1 0.1875 0  0.5625 0 0  0.1875 0 0  0 0.1875 0  0 0.5625 0  0 0.6875 0  0 0.8125 0  1 0.6875 0  1 0.8125 0  0.8021696218581627 0.6612893947866073 0  0.06154922295426143 0.6239401126946708 0  0.9359375 0.9359375 0  0.4666158024849896 0.7691515918155014 0  0.2318201265217025 0.7064974250277525 0  0.1565954253579966 0.6635489312486841 0  0.1598132503680848 0.7787147500325552 0  0.3146529991605639 0.8510876378205265 0  0.1461873209418733 0.05982804528877814 0  0.06109554988524315 0.2446551776247686 0  0.8054950308560754 0.5564226538848541 0  0.470541749491976 0.8853316336952531 0  0.6948472567465137 0.4042308563372457 0  0.8802828472348889 0.4658893256343853 0  0.6788075634946739 0.7974194205806069 0  0.2155048659603867 0.2428201584940968 0  0.8131223143423806 0.2132171049028394 0  0.4330798005432235 0.6671274900735726 0  0.6015279126162613 0.2187368078743274 0  0.8061636571464289 0.8703766630361714 0  0.7008230445061776 0.3478568388444072 0  0.8638466246958771 0.3147095987735538 0  0.204801534004265 0.8789209409594009 0  0.2449006736431132 0.9424182882803838 0  0.7611268409371427 0.2643056884799992 0  0.7552800864046191 0.7678006649959446 0  0.5983639638906616 0.864113435029236 0  0.1956559506814437 0.577281203577426 0  0.3527670268164207 0.1320469097565204 0  0.7530364577483248 0.3262386077083089 0  0.4535919187979363 0.4690107087451527 0  0.8824869791666666 0.8336588541666666 0  0.8814453125 0.9451171875 0  0.5582987942628019 0.622421666543858 0  0.6817532446064828 0.6939001801354731 0  0.3830295138888889 0.9450968952922078 0  0.4140603937012541 0.05211333372716105 0  0.5535864501303013 0.3060591985391672 0  0.6560130086346878 0.2729726562211558 0  0.890203140221684 0.5948314305427268 0  0.7043857725999024 0.593980890020804 0  0.5105843922695152 0.8016828014338627 0  0.05365910753708378 0.7315110031682004 0  0.616904573672261 0.4621186633436136 0  0.5338511646455415 0.387875898899613 0  0.5231769258947843 0.4477682463140762 0  0.650302973237622 0.7370722302085519 0  0.3927483139621257 0.4662414504529014 0  0.8034595960585199 0.4972538342758211 0  0.7738337841682438 0.9496376207663251 0  0.7193737507158268 0.954685447650112 0  0.482525916480686 0.5528257169991676 0  0.2533501157346781 0.2809495420003238 0  0.3118487924482243 0.5702930126570319 0  0.6257598847669529 0.4104163315430518 0  0.1354166666666667 0.1955605158730158 0  0.04166666666666666 0.15625 0  0.3956448985530264 0.6174149462065157 0  0.8102897701818546 0.3938784238208349 0  0.2641154190013625 0.8344469561943118 0  0.642852220770013 0.5068794586563659 0  0.05271458179508221 0.355846947336007 0  0.7021551360070266 0.8921457280225779 0  0.5692125776683765 0.1328512638850284 0  0.5206162811937602 0.04865158770992991 0  0.6001838442201555 0.04540556991297563 0  0.2597716608242787 0.4118346398477178 0  0.4040584599473195 0.3179589136784675 0  0.1480337679295207 0.8941560631483065 0  0.1344356707112281 0.9466251177415842 0  0.7114696411829317 0.4983917389078826 0  0.7585704698442475 0.5751926345944629 0  0.2189131956390871 0.04022068508159698 0  0.2476935455192043 0.1123642267635843 0  0.185995005654517 0.1365524537205238 0  0.6223414373308711 0.643380839165121 0  0.5732602596637543 0.7190051747306219 0  0.268358222364537 0.6586246524467934 0  0.3265879848129173 0.2369791782191225 0  0.1267095595787346 0.7034787238999181 0  0.1115202922226038 0.6421997933884982 0  0.3128688392940203 0.07260997451790079 0  0.550724900485678 0.9253360991633187 0  0.7142608810459105 0.2384904702214873 0  0.7045869185243887 0.1871826897887429 0  0.890625 0.734375 0  0.953125 0.765625 0  0.2111812642821677 0.8286209446459138 0  0.9590293078204457 0.09375 0  0.953431269039847 0.1435719386408004 0  0.04097069217955424 0.90625 0  0.04656873096015299 0.8564280613591996 0  0.1078743037981226 0.8541621766048062 0  0.8921256962018773 0.1458378233951939 0  0.8521576979194619 0.1084496634207678 0  0.8655663982740958 0.05464346096571447 0  0.04005659640905543 0.09375 0  0.1001448316533417 0.04246776244228261 
[...]
<CellData  Scalars="f_1962464"> 
<DataArray  type="Float64"  Name="f_1962464"  format="ascii">4.7006517678543665e-05   2.6365279707612099e-05   2.0841179581959691e-05   7.6347780110233613e-06   7.7746061295622370e-05   1.6885926931872762e-05   1.0263616650854448e-03   2.6793585733213145e-02   1.0520945010265495e-05   1.3727281129903496e-05   2.3485845442108736e-05   7.1322882066972933e-04   1.9815456124396046e-03   4.4305306288307760e-04   2.2412473078770040e-04   1.4548366210797862e-04   2.6062084229681951e-04   8.8260803898877722e-05   3.4758130230965503e-04   3.9105473471366781e-05   2.2523445178435197e-05   1.0312111225371399e-04   8.3119188193311685e-05   6.2460673416725205e-04   6.1579868530956222e-05   1.7789981165198417e-03   2.1007671798524291e-05   2.1374724107533773e-05   2.2935623736016920e-02   2.7005828391988045e-05   4.2216710069228320e-05   1.6680344447721700e-04   4.9630911496030073e-05   2.8126466678404520e-03   1.7175488661866892e-05   3.0379206317878802e-05   5.7311480342086047e-05   1.3244128057946418e-03   1.5004037521462360e-05   5.6324710748034434e-05   4.6273949017915579e-05   7.5746502349789577e-05   2.6355498816357445e-04   3.9783607758524334e-04   1.2080057582082590e-05   1.0325289358785335e-03   2.5320216585983141e-04   4.6931116956472778e-06   6.3324810755241191e-03   2.2131230224256013e-03   7.1744823853371973e-03   1.2123088026723119e-02   2.0526542275836135e-04   1.6643590684667360e-05   1.1095222952423580e-04   7.3173204239600795e-04   1.4437142058972328e-04   2.0710664971911949e-05   1.3945377225860140e-05   2.5119758898992828e-03   1.9000118675282262e-03   4.1772109666454507e-06   6.0763164942739230e-05   2.9823610034913298e-04   5.5673208783399149e-04   8.8778830432778311e-05   3.2558909955075641e-04   3.5670397407472983e-06   3.9286504768316625e-02   7.1963208346585525e-02   4.2176240389626293e-02   7.2155544925732451e-04   2.5126569916902204e-05   8.5416165566955325e-05   2.5217800919420560e-04   2.1557756753199674e-03   1.1267211950481734e-03   2.7996049265947316e-04   2.5489289802636795e-04   4.9384930776669883e-04   3.5320185035625778e-04   8.9604199766233562e-05   1.8951499170503531e-04   2.5110776182673579e-02   2.9293768279326834e-05   2.7831576783549807e-05   6.7925209760067169e-05   6.6648204167315679e-05   1.0654964653190877e-04   5.8913865567902207e-05   2.1031874471317972e-05   3.5824335355809591e-05   2.6164297334819498e-05   7.7575183122410802e-06   2.2570678996360120e-05   1.6190988640418723e-05   1.5252647922291410e-05   6.4090972248740469e-02   6.0587227687896351e-03   2.3347135011197472e-05   2.7797523890689228e-05   3.5337396652294415e-05   2.0479333243101667e-05   1.0621272712057242e-04   6.5404746250229050e-05   5.5375106421462806e-05   4.5529123121627643e-05   2.7342714558216206e-05   1.6508714846003479e-05   1.6121898422376787e-03   1.2123000693967428e-03   6.4023984397275876e-06   2.1745695965836634e-05   6.8365665983283693e-06   1.1630069008537453e-05   1.9729567858779514e-03   1.5829588324588998e-04   4.2314920377533452e-05   3.8130979704437460e-04   7.2469413021014042e-04   4.4784901830069238e-03   3.5246505204513258e-02   1.7906651133733868e-04   2.3771961871221962e-04   1.3853041758899590e-04   1.5225244331031285e-04   1.2159411476431792e-04   1.6319503023289668e-04   1.8853438950762108e-02   2.6837112100551707e-04   7.0611038184600940e-05   1.1463410853710900e-04   1.2416291789583036e-03   7.9781626879089310e-04   3.4178355620295324e-03   1.1173400877013242e-02   2.2432628728715815e-04   1.2799805795435159e-04   2.2930894077526000e-05   2.7435960329495745e-05   2.1460464066460028e-05   2.2029266195885876e-05   5.3891543500876204e-05   2.8483839009758819e-05   1.0202652653790212e-04   1.4858657395336346e-04   1.2902187185877859e-03   4.9424798843986410e-04   1.1322290471119758e-03   2.2898097232805465e-02   4.4130031348904320e-04   2.0982943912926756e-04   2.0219265578553212e-04   4.7003873998649106e-05   6.1380967544745507e-05   1.1118938143807573e-04   1.3606547002392846e-04   2.6637476258948104e-05   5.0293326382261239e-05   7.2058151297324299e-05   3.7437180462658273e-05   6.7552466920207013e-05   9.5401211395771402e-05   1.1328583579941278e-04   6.7927082620423851e-05   8.6277381307559757e-04   9.1429157485706355e-04   2.0311469066801107e-04   8.0932351851219456e-05   4.4302275791191951e-05   6.5679854536265336e-05   2.8599540766154927e-03   2.0537325842998388e-01   7.6196281941798616e-02   1.3828408727245537e-04   1.1282526188974411e-04   2.2985491877554540e-05   2.9262842531614651e-05   2.0682878930088411e-02   8.5201139259667574e-02   6.0031655495813121e-05   6.9424801014513851e-05   3.2038125035890000e-02   1.2280625930614340e-01   1.5993359345770609e-02   4.6383649626632710e-02   1.6859501333770656e-05   2.5027102669130118e-05   2.4906983423889152e-05   1.7077860047358555e-04   2.2924474063511213e-04   1.6998317398813262e-04   2.1276402266525230e-04   9.2194641734600506e-06   1.4647034210349569e-05   1.7104992439219263e-05   1.7807146075543311e-05   3.6077346768196851e-04   2.1097967031974904e-04   1.6462486929664399e-04   3.1838755729231885e-04   1.3140836449889402e-05   8.1912491565336285e-05   5.5373864108958961e-05   1.2618480305163273e-04   5.6563624762439896e-05   1.1128928997619736e-04   1.6608019692589028e-05   2.9112614104699687e-05   2.8970614223889129e-05   1.8778598225643226e-05   1.5340827259286514e-05   1.5625769159999696e-05   1.1326395260823584e-03   1.7236545571932176e-03   3.8842595016814259e-04   4.8021719935277908e-02   7.5803419318000873e-02   1.0281966009595680e-03   1.3623257046273902e-03   1.5996142296966569e-05   1.8246932828549869e-05   1.1139622367213568e-04   8.3874868818633401e-05   1.2388654495217165e-05   1.7698950960033683e-05   7.1007478420268728e-03   1.9908755029165320e-02   3.4844774696424436e-05   3.0970056125824545e-05   3.5032990086953676e-04   1.7113290477785312e-04   2.1703334107165371e-05   2.4772868380837093e-05   1.4050197579419057e-05   2.8614782144370701e-05   1.3788466397900073e-05   5.2720861467108806e-05   5.9950126534364543e-05   2.4929877735808386e-02   2.0327373607892021e-03   2.0246528454409912e-04   7.7857656638819717e-05   5.9589736466626739e-05   1.6943650047179439e-05   3.5482599972827536e-03   1.0692106436923817e-04   5.8472141909040446e-05   8.9737232368121745e-05   2.4449829723329715e-05   1.2201902295538909e-04   2.1368599419695238e-04   1.8430269072935985e-05   1.3978201990093482e-05   1.5500602179682713e-05   1.3310604217943609e-05   3.3820929315131400e-04   3.5951506225535883e-04   1.6981671507626765e-05   1.3483010899574762e-05   2.4633815770042917e-03   5.6757140342995225e-03   4.1472008191540239e-05   3.4970293285569562e-05   1.6247642562477909e-05   2.4872379109411105e-05   9.9497024022112708e-05   1.0137295040861738e-04   6.9190268349568620e-05   9.8593741467342205e-05   7.6676828615690029e-04   3.8571770896871777e-04   1.6360486945311947e-04   2.3705603587526364e-04   6.0830093691917671e-02   1.1765018353601901e-01   9.0881954096098052e-05   3.6896307520872113e-02   3.0391129013040190e-02   6.6496460471659233e-02   5.7480337898188595e-04   3.1650850680673463e-02   7.3206539172778501e-02   5.3181539668099059e-05   2.7851770976804024e-05   5.5557975208572801e-05   6.4519155028717542e-06   1.7417009409799294e-05   2.2207011000221153e-05   1.4946832307092911e-05   1.1356854698338111e-05   2.0364427366649428e-05   2.0909323604493405e-04   3.4632254190065476e-04   1.4050071209470794e-03   8.2307606402372681e-04   5.5237973092801653e-03   1.0875598107739513e-03   9.0517034058929871e-03   5.3870556107971589e-04   2.0712802899019883e-04   2.1309622263713390e-04   2.2350867356831686e-02   2.4480076923302601e-04   3.0305340088051863e-03   1.1079576466538686e-03   3.9223551490352092e-04   2.3994393246558939e-04   3.2582708902011072e-04   8.6139224398131800e-04   1.1592825359681158e-03   3.8663047595747839e-02   7.0249546173287991e-03   1.7706398112181265e-05   2.6785784225718780e-04   1.5769693380373565e-04   7.7134072395780157e-03   4.8937598754421711e-03   8.2451417765848852e-05   4.4849144808139889e-05   1.0430549677713479e-04   1.4929724999097527e-04   6.5986623919629694e-04   5.2719838455805466e-04   1.5378613223218109e-05   3.4142281162495405e-05   1.0603925057467974e-05   1.1669893129423525e-05   2.1189521733793362e-04   7.7607414049616727e-05   2.0591969809646567e-05   2.5905700886003004e-05   2.6868737038771638e-03   3.5332573175658093e-03   6.6470263638686883e-05   3.7582093983194037e-05   2.8002359244719863e-05   2.3614655110746230e-05   2.0465940134862565e-03   1.2194584830520858e-02   3.9237264787717586e-02   6.5610052935295934e-05   5.2500910398002084e-05   3.0935084868662641e-04   7.8228086496156569e-04   1.8236869923439970e-03   3.3185166616814685e-02   3.8964268114078065e-04   1.2146813292431726e-04   1.4333422441498400e-05   1.4626339916424381e-05   5.5292053994413851e-05   3.2185781564229382e-05   1.1633352415349310e-04   5.8534682341626275e-05   5.2798875581790755e-03   9.9034786894946370e-03   1.2177525995035239e-01   1.0704976686880427e-04   2.5250428188196229e-04   4.9535947064030105e-04   5.1646726040293809e-04   1.3997846118490506e-01   4.5504693550887372e-05   3.4606305773763575e-05   2.9326067116449117e-05   2.7460250292763770e-05   8.8625497128943522e-04   7.1561109887880673e-04   1.5980502716591804e-04   2.4638675703713428e-04   1.7984324668588742e-03   6.4978389866730147e-03   4.0461613644832552e-04   2.1957633415684578e-04   6.3396977974079080e-05   7.4369123742484405e-05   9.1776033808089761e-05   3.2860482158855526e-05   1.1469255256964791e-04   1.3426911822489617e-04   5.5666498897292689e-04   3.4471816213117252e-04   1.1983287922744848e-04   1.6194464411793165e-04   8.8479754778069056e-05   1.4691422598200847e-04   1.5069218265118174e-02   1.8512699100571472e-02   7.2450420597870074e-02   1.3466220466043860e-04   1.3523153999866330e-04   3.8508923230880910e-05   1.9139873488970212e-05   1.1595058117642743e-04   1.7606662525227498e-04   5.4060561481180744e-05   5.9285383406749423e-05   1.0045296224244854e-05   9.4137969379499777e-06   1.2736935975311585e-05   1.2231062519801992e-05   1.6653779820398931e-04   1.7159869728367922e-04   7.2578537679637923e-05   3.8375366206505534e-05   2.8680985796458755e-03   2.1987268030520027e-03   1.0964963181316524e-04   8.0017754325605468e-05   5.9954324778871957e-05   5.9316183380877662e-05   1.1738200126064802e-03   2.9802035103172137e-03   2.0487625411547239e-05   2.0331102239743990e-05   1.6746155052387950e-05   9.2546929620745882e-06   9.7117591518745917e-05   1.0092270670164845e-04   3.4335652002017171e-05   3.7170846855538912e-05   1.5681945177796624e-03   1.3935829464267620e-03   4.0571302267808904e-02   7.8551307702552444e-05   8.8799881625582490e-05   9.9407537418990622e-05   1.7469477649846013e-04   8.3017810294621424e-06   1.0166596357636444e-05   8.4737627804970721e-06   2.1574214691669448e-05   1.3527506047626113e-05   7.5916053176755350e-06   2.0767184137792486e-04   2.5544239202650873e-04   7.8022276838308081e-04   7.4281697756326209e-04   2.4250195322462527e-04   2.4075742772223087e-04   2.3169838191960312e-05   2.3639957571579374e-05   3.8424559066787064e-04   8.2038013892034626e-04   3.5406154782730980e-04   3.7088634801101108e-04   1.5289040806656471e-05   9.5485367560609348e-06   3.1098383576861608e-03   2.5095555049869253e-02   2.3516882083446304e-05   3.3246307393806935e-05   2.1355121266786555e-05   1.4013126624359777e-05   4.0777775157572306e-03   7.5967885569756431e-04   8.5226113648622821e-03   5.6181594187215481e-03   1.0803793178708256e-03   8.0194770718331485e-04   1.1066632255127793e-05   7.2689937398356493e-06   2.9093416009086023e-05   1.8727583996222313e-03   1.4160302107462251e-03   1.6017699437332847e-03   1.4956396411765769e-03   1.9283495648034067e-03   1.3881412679487374e-05   9.9976949418467113e-06   7.6179406675813473e-06   6.6360864760511137e-06   1.0400229452515218e-05   1.1024910293363913e-05   9.1067030251276358e-06   7.8781655544853833e-06   1.2442560372688389e-05   1.2265909112502289e-05   1.7287376274335616e-05   5.5343663619516880e-03   4.7765328286407697e-03   2.2312463187603045e-02   3.5915942161645776e-03   1.1894405173635423e-05   8.9606227906887565e-06   4.1522771847425878e-05   2.4384011601344060e-05   3.0717441754275871e-05   2.0850866097195510e-05   2.0605112145012969e-05   2.5652009043798877e-05   1.3435733184320481e-03   1.0324725209596461e-03   1.0192805039002316e-04   1.6276302639809621e-04   5.4220854643956428e-05   1.1064367747506009e-04   1.5811639249517562e-05   9.4222403934033093e-06   2.3016417309376221e-05   1.9211587722198467e-05   4.7796507887051896e-03   4.6377153584144947e-05   2.2905477161989556e-05   1.6084022769595599e-02   1.7568454184943811e-02   8.6751260605177395e-04   4.0287900258268827e-04   2.8421477164079106e-04   3.2566748675835706e-04   3.8294214447183918e-05   5.3027823394092972e-05   6.3786806020291989e-04   1.0201799920194782e-03   2.3748541400838851e-05   1.1446608164494681e-05   7.2813086064471328e-05   1.1022088657217998e-04   8.1684153464388274e-06   7.6962275970438477e-06   8.2865274241016560e-05   6.0506517969067180e-05   3.2545321959344495e-04   3.0391572451669168e-04   1.1738416760898008e-04   2.8620709647090941e-04   1.2293104822832118e-05   2.3608382505951343e-05   6.1233777473481182e-06   7.8075009551810623e-05   4.3013794669143291e-05   4.6758776999738126e-03   1.3134723416514296e-03   4.4458469192886996e-05   9.6567175468373107e-05   1.7032042656894982e-04   5.9474693708964546e-05   4.1771998353654430e-05   3.9886102873593030e-05   2.0768893887795013e-05   1.8863624148749705e-05   1.6846777599173322e-04   8.4000941663592556e-05   5.5132150794162758e-04   8.4160219272631483e-04   1.2441007793328974e-03   2.5287853014660301e-03   3.2604643419350941e-04   3.3330168417417108e-04   1.5027574744306496e-05   1.8311938906032381e-05   5.1621604988798437e-04   6.7529818372713112e-04   2.7754245006100229e-03   1.2092096258892052e-03   1.1079240056989628e-01   2.7564312124561734e-04   1.7709423499442077e-04   7.8353077472560485e-05   1.7102142439229875e-03   4.5691368869658580e-04   1.2457678432397788e-03   5.5781520861388518e-05   6.7197229137065537e-05   8.5378815064536739e-06   9.9553529012144329e-06   5.3619830737180702e-05   4.2882724220409039e-05   6.0430714679842118e-03   7.5733981994227399e-03   2.1604238956493605e-05   1.1205169538346173e-05   3.2494522318323842e-04   7.6354074535162563e-04   6.4989619670451841e-04   1.1964525155649427e-03   9.4801635861985829e-05   1.0703366749721290e-04   1.1373310842404732e-01   1.1859271102365183e-01   1.2087267174587887e-04   9.2746429486455795e-05   1.6168235902185751e-05   1.6806435907657648e-05   1.7648661382538513e-05   2.0654618241322244e-05   2.1694246994847931e-05   1.8405806422118502e-05   2.1522846304972837e-04   2.7179868824411455e-04   3.7002346774843398e-04   9.9317771547885136e-05   8.6256558770266828e-05   1.3670525989728796e-01   3.8349696720562878e-04   2.4060666798068634e-04   4.8127477614646910e-04   2.6594865916617212e-04   1.8842695927852729e-05   2.5769183156312159e-05   9.7616699595898956e-02   1.4510654212651062e-03   3.7603215370305494e-03   6.1774636971064254e-05   5.5239540738570691e-05   9.4063542384397063e-05   1.0621286135260008e-04   2.5883629280566998e-02   1.1265353378915512e-02   2.5816662506274066e-04   1.0823388191454913e-04   4.6407742706034929e-05   1.0826543499854312e-04   6.8510655366361402e-06   8.3037633943975837e-06   5.9634576143511817e-05   8.7408855726018068e-05   2.8399616135800998e-01   4.1712062368835509e-05   6.2383840152683252e-05   4.9113525442571928e-05   6.0806232217917123e-05   3.0028251524274544e-05   3.7088313244496573e-05   9.0733631080674020e-05   5.0825064120918538e-05   1.8383583641858696e-05   2.9989590083685508e-05   8.3677431932312527e-05   1.0802444894100671e-04   2.8770626296820980e-04   3.4336174822168034e-04   1.2661036627297013e-04   1.2886590426638598e-04   8.2678380401087214e-05   4.0820835677353935e-05   1.5841421763657169e-04   1.8478058903223743e-04   2.1070510269917208e-05   2.0998480888365567e-05   1.5792448786519717e-05   2.0297836796121482e-05   3.8623688576317614e-05   2.6552429633682759e-05   2.0132690380915271e-05   2.1715063123528012e-05   1.7836472113026209e-02   3.9535831884850180e-02   3.2179345548596489e-05   5.9665717729624538e-05   4.7652663063775507e-05   4.7742253092136724e-05   1.5143472217685988e-03   2.4170557291284772e-03   1.7831174718086534e-04   1.1083747116222634e-04   1.9625518269323979e-03   8.6521239718278760e-04   9.6512630948937811e-06   1.3219028272109466e-05   3.5631872482109609e-05   1.2747684624200115e-04   8.3074144227594980e-05   8.3171289839248841e-05   2.8701802560119014e-05   1.1095942722936599e-04   1.2033698270468571e-04   1.1347565579045661e-04   2.2385852332304011e-04   1.4742135821452598e-01   4.1930646918895552e-04   1.9884499474264930e-04   7.3816399018752297e-05   4.0228124171989641e-05   2.6867420809741213e-04   5.4312146980905725e-04   3.0786426771997486e-04   3.6546009443248696e-04   1.2707704857456961e-05   3.0163228069095909e-05   2.1252323400108818e-03   7.3543864518901283e-04   2.8092908106438619e-05   3.0972008513157052e-05   2.0245512219032284e-04   1.2101829698194190e-04   1.5637523523744703e-04   4.8399444591193235e-05   2.9172761702254257e-01   1.5010417321761985e-01   3.5284778986529913e-05   4.5717135239958571e-05   1.1240534161675296e-04   7.4701814629669523e-05   1.1493696146222225e-04   8.5263053874721023e-05   8.5331820110771397e-04   5.0837805579215353e-04   2.4991239114026290e-05   3.8269559037043751e-05   2.3016622944827488e-05   2.0527656576086101e-05   6.4559203234841860e-04   5.2500551636494380e-04   2.1452311008050989e-02   2.4588089349096520e-02   1.2727036970540642e-04   8.5313068084150244e-05   1.7690429108780132e-04   1.1717913743544154e-04   8.5447022061426760e-04   5.1587940068053369e-04   3.1620760714305566e-04   3.7123745030300469e-04   2.3752313071034048e-04   3.6183369675874813e-04   3.6369754859628166e-03   1.5382788528186888e-03   6.4522700386519338e-04   3.5603793845776660e-04   1.6779370249486560e-05   1.6523166931364383e-05   2.1317842902214544e-05   1.2494221409956665e-04   1.0362762738817973e-04   1.0090552296792185e-02   2.4223387988496662e-02   5.2011972748633131e-02   1.2084616879710153e-01   2.3014435234789490e-05   2.4027699662296519e-05   3.8525004762265396e-03   1.4409458556084154e-03   1.8610822182699747e-05   1.7576023245771680e-05   1.4892556393242388e-05   9.5127339714544299e-06   1.7782854798580270e-05   2.0954485482907008e-05   1.2853192183216431e-05   1.6474932960115652e-05   4.9156715846554867e-04   7.3805254338765649e-04   8.4756014728160883e-05   6.5808293070081459e-05   1.3975553835631552e-05   1.8323236479838133e-05   5.7018591764095600e-02   1.1883473164958014e-01   3.8406504028383888e-05   4.4353531107723373e-05   3.9879195021318961e-04   2.4202384111420244e-04   3.5466445185313319e-05   2.1076631823845284e-05   1.2972589411831010e-05   2.7101056559572781e-05   1.4601141260220565e-05   1.6066499660353635e-05   9.3487463525067566e-05   2.9337784648267914e-04   5.7722485595940209e-05   1.3599031558432251e-04   1.0307554007878014e-02   8.1035369658623048e-03   8.3389534225908723e-06   1.0104343346340612e-05   9.6141638579788410e-03   1.2994558551031857e-02   8.3178833385832155e-05   5.6161987442774967e-05   7.4834197133177252e-02   1.4358683731007577e-01   3.4485155496438194e-05   3.5246971888997200e-05   1.3974740804124347e-04   1.0609460405363357e-04   4.3476513705472741e-05   3.1783158705972935e-05   3.1187697384864908e-05   5.7920054662782501e-05   1.1630287737740447e-04   8.5691248256175698e-05   1.7521382694646987e-04   2.0395709739998245e-02   2.2611536240759310e-02   1.3442623440334660e-04   1.2946712945059982e-04   1.6565541085737005e-05   1.6817010294333916e-05   3.8239513198961501e-06   7.4668822215988974e-06   2.0222995687648332e-05   1.9631038095212720e-05   9.6996872142534069e-06   6.7819