<?xml version="1.0"?>
<VTKFile type="UnstructuredGrid"  version="0.1"  >
<UnstructuredGrid>
<Piece  NumberOfPoints="4299" NumberOfCells="8340">
<Points>
<DataArray  type="Float64"  NumberOfComponents="3"  format="ascii">0 1 0  0 0 0  1 0 0  1 1 0  0.5 0 0  1 0.5 0  0.5 1 0  0 0.5 0  0.5 0.5 0  0 0.25 0  0.25 0 0  0.25 1 0  0 0.75 0  1 0.25 0  0.75 0 0  1 0.75 0  0.75 1 0  0.7083333333333333 0.2916666666666667 0  0.2916666666666666 0.7083333333333334 0  0.375 0.25 0  0.75 0.625 0  0.2569444444444444 0.4652777777777778 0  0.5366379310344828 0.7535919540229885 0  0.1875 0.1875 0  0.8125 0.8125 0  0.869047619047619 0.375 0  0.1450441919191919 0.6052714646464646 0  0.375 0.8690476190476191 0  0.5526960784313725 0.1825980392156862 0  0.8385416666666666 0.1614583333333334 0  0.1614583333333333 0.8385416666666667 0  0.6736111111111112 0.4652777777777778 0  0.1367521367521368 0.3477564102564102 0  0.6570970491253563 0.8648656830417855 0  0.5102479397556124 0.3386260301221938 0  0.3654513888888889 0.5737847222222222 0  0.6929750044954185 0.1362784921584263 0  0.388576102743835 0.411911725237599 0  0.6091269841269842 0.5942460317460317 0  0.875 0.6875 0  0.427278890279516 0.119889445139758 0  0.8544456845238095 0.5213913690476191 0  0.125 0 0  0 0.125 0  1 0.875 0  0.875 1 0  0.1280008648150532 0.4769292340226777 0  0.2695382451711197 0.3321750950221553 0  0.7031567235715964 0.7447810921428012 0  0.625 0 0  0.375 0 0  0.125 1 0  0.875 0 0  0 0.375 0  0 0.625 0  1 0.375 0  0.375 1 0  1 0.125 0  0 0.875 0  0.625 1 0  1 0.625 0  0.2979288363930608 0.1201429454643536 0  0.410919540229885 0.7484605911330049 0  0.5325041980395562 0.878905151526474 0  0.4831670727569156 0.6331060043826487 0  0.1735997378973042 0.7204747378973043 0  0.2534919507575758 0.5772372159090909 0  0.2633928571428572 0.8876488095238095 0  0.8199404761904761 0.2730654761904762 0  0.75830270586982 0.3919383189517417 0  0.5750282248382511 0.4237522353023667 0  0.6008360210023379 0.2794828358598495 0  0.08163442644334186 0.6821295860397322 0  0.08333333333333333 0.1875 0  0.2028380815996574 0.08844602719988583 0  0.2766521142611967 0.2325436572164097 0  0.90625 0.78125 0  0.890625 0.890625 0  0.7545696325008384 0.8973565441669461 0  0.5625 0.08086590340834317 0  0.09077380952380953 0.09077380952380952 0  0.4610923478694773 0.209034015149656 0  0.7542527598351648 0.5248380520595106 0  0.6459235536037465 0.3619913988405765 0  0.7560381768882634 0.20506142233852 0  0.07073252688172042 0.8125 0  0.0924753097241701 0.9078102849914793 0  0.9292674731182795 0.1875 0  0.9075246902758297 0.09218971500852073 0  0.8125 0.07073252688172045 0  0.2400955776842301 0.7869705776842302 0  0.9121050213379069 0.2781978201831695 0  0.7916878157143976 0.7239689078571988 0  0.9345238095238094 0.4375 0  0.4375 0.9345238095238095 0  0.3725616989755203 0.6651895248862173 0  0.06536271996350887 0.5625 0  0.9348362560379583 0.5625 0  0.456646798987055 0.8277247094351965 0  0.1875 0.9355758238725954 0  0.6169761231634859 0.6939779188977889 0  0.6226854751147515 0.7827911461419014 0  0.3305695598137626 0.7901697871282585 0  0.5865305325818898 0.5101085479043448 0  0.6622701297028378 0.2177663989757395 0  0.1354166666666667 0.2591702279202279 0  0 0.3125 0  0.2094429575680048 0.3936361846162499 0  0.836666296419157 0.607917407161686 0  0.6875 1 0  0.214261555450504 0.6492551722020035 0  0 0.4375 0  0.07731537126068377 0.40625 0  0.3427725432967068 0.4879566233699599 0  0.3550792513951871 0.3331953632609953 0  0.4462473953896857 0.2887834789342508 0  0.4747801464819794 0.417386052030127 0  0.8229836475148948 0.4443292349237342 0  0.7322605135514757 0.8199240278289671 0  0.6756431877205955 0.5468989748126787 0  0.1968419507215863 0.5194573482612496 0  0.3285590277777778 0.9345238095238095 0  0.8125 1 0  0.4198917601920009 0.5134893045331258 0  0.5232405503206691 0.2595791787880157 0  1 0.9375 0  0.1987510870015086 0.3025185951894431 0  0.5625 1 0  0.6005390654136388 0.9228110509230952 0  0.6411254848194414 0.07704872765442942 0  0.3357233162523242 0.1855113224530532 0  0.6730653396610877 0.6393887462324165 0  0.310966987234063 0.6240019765311626 0  0.7368737836204349 0.07457755202327881 0  0.6192316414418171 0.1485238406378594 0  0.5432429670607106 0.678552703844006 0  0.4754371679695679 0.7103946803120881 0  0.07501324890749672 0.3043839897335739 0  0.5358146975860403 0.5688321463205916 0  0.3115271739500156 0.3982137365971444 0  0.3625191397122174 0.0767854603650549 0  0.5024029442563831 0.1264128223758444 0  0.4375 0 0  0.4699946908887376 0.06379961173775725 0  0.9375 0.71875 0  0.9272105898044465 0.635671179608893 0  0.9375 1 0  0.6690971819568612 0.9331530898202766 0  0.1073454944778885 0.7499206387638554 0  0.8699082999280406 0.2232403652524313 0  0.5773118091863964 0.3548027349159383 0  0.1354166666666667 0.1428571428571428 0  0.3125 0 0  0.8241684193077341 0.9257452995055244 0  0.4352314948354036 0.3586940847489378 0  0.4351301473778832 0.5819726043539077 0  0.8073232928518163 0.3419398170341962 0  0.7775949246947366 0.1298519409204575 0  0.6875 0 0  0.7413513991851041 0.457933324954483 0  0.939453125 0.841796875 0  0.5630355154606987 0.8171875156478349 0  0.9345238095238095 0.3461466592368577 0  0.9375 0 0  1 0.0625 0  0.0625 1 0  0 0.9375 0  0.06552178593177167 0.4969053669623468 0  0.1424866619031703 0.4130277709291224 0  0.1275287182444726 0.5422946908002588 0  0.2637686595586339 0.06413888464529549 0  0.2524263535491086 0.1697437503243817 0  0.7367218397988525 0.6888573970660841 0  0.0625 0 0  0 0.0625 0  0.8463594539285995 0.7578283617857982 0  0.3128751192101563 0.2851997374369947 0  0.4015281788351144 0.1806421385113692 0  0.1910251795116588 0.4553332197174453 0  0.287797471442006 0.5222621440543902 0  0.3962628745986055 0.8097380085535307 0  0.3505895299554843 0.7304878890838692 0  0.5019151500495276 0.9356042615328103 0  0.9374389419410134 0.4999931039076005 0  0.3125 1 0  0.1875 1 0  1 0.5625 0  0.4375 1 0  1 0.3125 0  1 0.4375 0  0.8125 0 0  1 0.1875 0  0.5625 0 0  0.1875 0 0  0 0.1875 0  0 0.5625 0  0 0.6875 0  0 0.8125 0  1 0.6875 0  1 0.8125 0  0.8021696218581627 0.6612893947866073 0  0.06154922295426143 0.6239401126946708 0  0.9359375 0.9359375 0  0.4666158024849896 0.7691515918155014 0  0.2318201265217025 0.7064974250277525 0  0.1565954253579966 0.6635489312486841 0  0.1598132503680848 0.7787147500325552 0  0.3146529991605639 0.8510876378205265 0  0.1461873209418733 0.05982804528877814 0  0.06109554988524315 0.2446551776247686 0  0.8054950308560754 0.5564226538848541 0  0.470541749491976 0.8853316336952531 0  0.6948472567465137 0.4042308563372457 0  0.8802828472348889 0.4658893256343853 0  0.6788075634946739 0.7974194205806069 0  0.2155048659603867 0.2428201584940968 0  0.8131223143423806 0.2132171049028394 0  0.4330798005432235 0.6671274900735726 0  0.6015279126162613 0.2187368078743274 0  0.8061636571464289 0.8703766630361714 0  0.7008230445061776 0.3478568388444072 0  0.8638466246958771 0.3147095987735538 0  0.204801534004265 0.8789209409594009 0  0.2449006736431132 0.9424182882803838 0  0.7611268409371427 0.2643056884799992 0  0.7552800864046191 0.7678006649959446 0  0.5983639638906616 0.864113435029236 0  0.1956559506814437 0.577281203577426 0  0.3527670268164207 0.1320469097565204 0  0.7530364577483248 0.3262386077083089 0  0.4535919187979363 0.4690107087451527 0  0.8824869791666666 0.8336588541666666 0  0.8814453125 0.9451171875 0  0.5582987942628019 0.622421666543858 0  0.6817532446064828 0.6939001801354731 0  0.3830295138888889 0.9450968952922078 0  0.4140603937012541 0.05211333372716105 0  0.5535864501303013 0.3060591985391672 0  0.6560130086346878 0.2729726562211558 0  0.890203140221684 0.5948314305427268 0  0.7043857725999024 0.593980890020804 0  0.5105843922695152 0.8016828014338627 0  0.05365910753708378 0.7315110031682004 0  0.616904573672261 0.4621186633436136 0  0.5338511646455415 0.387875898899613 0  0.5231769258947843 0.4477682463140762 0  0.650302973237622 0.7370722302085519 0  0.3927483139621257 0.4662414504529014 0  0.8034595960585199 0.4972538342758211 0  0.7738337841682438 0.9496376207663251 0  0.7193737507158268 0.954685447650112 0  0.482525916480686 0.5528257169991676 0  0.2533501157346781 0.2809495420003238 0  0.3118487924482243 0.5702930126570319 0  0.6257598847669529 0.4104163315430518 0  0.1354166666666667 0.1955605158730158 0  0.04166666666666666 0.15625 0  0.3956448985530264 0.6174149462065157 0  0.8102897701818546 0.3938784238208349 0  0.2641154190013625 0.8344469561943118 0  0.642852220770013 0.5068794586563659 0  0.05271458179508221 0.355846947336007 0  0.7021551360070266 0.8921457280225779 0  0.5692125776683765 0.1328512638850284 0  0.5206162811937602 0.04865158770992991 0  0.6001838442201555 0.04540556991297563 0  0.2597716608242787 0.4118346398477178 0  0.4040584599473195 0.3179589136784675 0  0.1480337679295207 0.8941560631483065 0  0.1344356707112281 0.9466251177415842 0  0.7114696411829317 0.4983917389078826 0  0.7585704698442475 0.5751926345944629 0  0.2189131956390871 0.04022068508159698 0  0.2094512238151452 0.1401845482039332 0  0.6223414373308711 0.643380839165121 0  0.5732602596637543 0.7190051747306219 0  0.268358222364537 0.6586246524467934 0  0.3265879848129173 0.2369791782191225 0  0.1267095595787346 0.7034787238999181 0  0.1115202922226038 0.6421997933884982 0  0.3128688392940203 0.07260997451790079 0  0.550724900485678 0.9253360991633187 0  0.7142608810459105 0.2384904702214873 0  0.7045869185243887 0.1871826897887429 0  0.890625 0.734375 0  0.953125 0.765625 0  0.2111812642821677 0.8286209446459138 0  0.9590293078204457 0.09375 0  0.953431269039847 0.1435719386408004 0  0.04097069217955424 0.90625 0  0.04656873096015299 0.8564280613591996 0  0.1078743037981226 0.8541621766048062 0  0.8921256962018773 0.1458378233951939 0  0.8521576979194619 0.1084496634207678 0  0.8655663982740958 0.05464346096571447 0  0.04005659640905543 0.09375 0  0.1001448316533417 0.04246776244228261 0  0.934578184766147 0.05001804220989697
[...]
<CellData  Scalars="f_4732934"> 
<DataArray  type="Float64"  Name="f_4732934"  format="ascii">5.2846005388521804e-05   2.7182712342707321e-05   1.9046209524880492e-05   5.6822165461709669e-06   6.0104064049396191e-05   2.1964568615154136e-05   9.5136149157629753e-04   2.8357119376700744e-02   1.0232154345112564e-05   2.2583444768181998e-05   2.5780544096255959e-05   8.4062775847037888e-04   2.3723812665061681e-03   1.8830171124083382e-04   3.0606852065140702e-04   2.3676370742008640e-04   2.0777551998925182e-04   1.4857223837015407e-04   2.6408465392079662e-04   4.0184514348729129e-05   2.1138902697329653e-05   1.2164414998668583e-04   6.7093705006854737e-05   6.1590005565291225e-04   8.5882776849980871e-05   1.9527657920540391e-03   6.2164201971612232e-06   9.8763341688374209e-06   1.7462609473235989e-02   2.5514736619403292e-05   6.9428663655877784e-05   1.7324316385854046e-04   3.9638888586860338e-05   2.1629105001537987e-03   2.5875518297462124e-05   4.0366895755815787e-05   7.3767118709296123e-05   7.1796430160257242e-04   6.4019763891794444e-06   9.6219241969994952e-05   9.6218483330539931e-05   5.6876065266074875e-05   1.1562956215833739e-04   2.3397929775978183e-04   1.8639720925120744e-05   1.0178882233529182e-03   2.5520554916503175e-04   1.0401782099929285e-05   4.6937475914075200e-03   1.4556619688717435e-03   6.4140805341319747e-03   1.5567071033114810e-02   1.7119108507872690e-04   2.7556513794643683e-05   1.1777097313636016e-04   8.8142398345252752e-04   1.2105339782364043e-04   2.6565812076960599e-05   2.5259550565684545e-05   1.4024805658399437e-03   1.5515555962707843e-03   8.0191461112875441e-06   6.6398871677971662e-05   1.3228638080926998e-04   5.6947236593830549e-04   7.0860192746997043e-05   6.9274595900012078e-04   6.7813099319760940e-06   4.3583364899296498e-02   9.7099344329533807e-02   6.2441117304893795e-02   8.1033531289787029e-04   4.8235787379464419e-05   1.8093186896497900e-04   1.9823701456386401e-04   1.8467754031045271e-03   1.0314207283513646e-03   1.6697405718494647e-04   1.7051420725582844e-04   3.3051573781046781e-04   2.3274779406294536e-04   6.0156212659502785e-05   1.5389739161076970e-04   2.3775244613818032e-02   3.5595232921903079e-05   1.5717963802585828e-05   4.3284270775056742e-05   7.0111418723996333e-05   9.8488842590622663e-05   5.3601677094222098e-05   2.3091953095033458e-05   5.1438687372635263e-05   1.0365809437061181e-05   1.0107596201768488e-05   1.0309986776838139e-05   1.7351163681852449e-05   2.2072096258346774e-05   6.7819496237190816e-02   5.0087864084320940e-03   2.4486312440769538e-05   2.0191499837564825e-05   3.3020558428992310e-05   2.4838805975469238e-05   1.1622394609894764e-04   1.0489038434850302e-04   8.8097513095753622e-05   3.9212560382704605e-05   2.9140219432204112e-05   9.0864687000547324e-06   2.9602927087482708e-03   1.5541649792415123e-03   6.9575037003890915e-06   2.7075370665889144e-05   7.9842000673750510e-06   5.3783777228061961e-06   6.8911767093880565e-04   1.8020180650733846e-04   2.3232829896241592e-05   3.1335240236639913e-04   4.9492045055446595e-04   2.9998990899752125e-03   1.8874111545804206e-02   2.1007701444878055e-04   1.8933463557078861e-04   1.6888122684639482e-04   1.4642532043164326e-04   1.4137403501926236e-04   1.6199729675538254e-04   1.9563231859169770e-02   2.2942280676947188e-04   5.8519101447825163e-05   1.9207173992311213e-04   1.5162325428301360e-03   8.4363045923052042e-04   2.2547083685872439e-03   1.4370971958892245e-02   1.6983575780807943e-04   9.9947813991191302e-05   1.4456600743954480e-05   3.0272026936851435e-05   3.4018323604063751e-05   2.1058474066196889e-05   5.2616691173719880e-05   2.5275714877416952e-05   1.2808363215725485e-04   1.0462740209869428e-04   1.2190099032477638e-03   3.8861566186578492e-04   1.2525261313713312e-03   2.7218284614285673e-02   1.9974082931015685e-04   1.7298637796110119e-04   1.9364942210046431e-04   3.1519886239248655e-05   7.5776853304430276e-05   9.0161329867101685e-05   1.2171512912625302e-04   2.6058511844787502e-05   4.3177995337317209e-05   1.1426982166886164e-04   5.3419187391621959e-05   6.1567278060914275e-05   5.7389421507798868e-05   7.6874270592465613e-05   9.7441006993525365e-05   1.1156039909061195e-03   7.8553094572564308e-04   1.7766553017860379e-04   5.3845937051673313e-05   1.2737556549405397e-04   5.7088284502494838e-05   2.2493033034881173e-03   2.0044292101856598e-01   8.0277339759407582e-02   1.4005367921487427e-04   2.8116530649557094e-04   3.4105628282447294e-05   3.1335516685052494e-05   3.5265164334075762e-02   3.2244720359094425e-02   5.4183757938541789e-05   5.0908641140332524e-05   3.7628983831533160e-02   2.0321842063444420e-01   1.6873228836322519e-02   3.5914901406532841e-02   7.6836595533141441e-06   2.5283298722657828e-05   2.4275803511625526e-05   1.5772366481101721e-04   2.3009022600432074e-04   2.6118180904782107e-04   2.8515141729069373e-04   9.6832934276600387e-06   6.4766505949874857e-06   1.4749787138422595e-05   1.3956776279444041e-05   2.7553453000731003e-04   1.4877196931290762e-04   1.3669308616454342e-04   2.4539472947601168e-04   3.2198105277401874e-05   5.8159841660244941e-05   6.9366608385834346e-05   1.0812847355662750e-04   5.6574927386228443e-05   1.2023715489214668e-04   1.5978921059800327e-05   2.3471234917117090e-05   2.5400099700434338e-05   2.5031242074220449e-05   1.4876604670374036e-05   1.2199531680264207e-05   1.1325095136450732e-03   1.6104099666861803e-03   3.6763866375895133e-04   2.2037056205136209e-02   6.3453538021110437e-02   7.1787000116647437e-04   6.9327387487131385e-04   2.7370083965896628e-05   1.8692636002807108e-05   1.4795858205165862e-04   4.6818143567626393e-05   1.4695972643324798e-05   1.6850597497165347e-05   1.3881127328146824e-02   1.1600990662656680e-02   4.0166595884039677e-05   4.0818830318306869e-05   3.4827329727598119e-04   1.6271553288265490e-04   2.0539230046819906e-05   3.6806409082942129e-05   1.1840697157286627e-05   1.6029053679288040e-05   9.2191107840494647e-06   1.0029795929527804e-04   7.8336939485804802e-05   1.6253687079351403e-02   1.6821130063135090e-03   1.5324298043074974e-04   8.3160433917771150e-05   9.3974964364470622e-05   1.6561745237310884e-05   4.2012804870457960e-03   8.6828820436291729e-05   6.2045936860956360e-05   6.2249380465655840e-05   4.3299665143633409e-05   1.4766227486060954e-04   1.4750142189234384e-04   1.8817701972016078e-05   7.9209935941793299e-06   5.6737819023708628e-06   9.3019105019811307e-06   1.6009640888856074e-04   3.0805211285216778e-04   7.3029371462167293e-06   1.2221647083647358e-05   2.4071278161329175e-03   9.1146714659274888e-03   4.5366900734719097e-05   2.3962250210776288e-05   1.8774378302643541e-05   2.2494989865868941e-05   8.1163329377963837e-05   1.5243437347483646e-04   2.1519798144331061e-04   1.4412728511502368e-04   5.8351567440168668e-04   4.8239800887215327e-04   2.5585299866831730e-04   3.1546214539413832e-04   9.5110798681635439e-02   1.0864065008983428e-01   6.9008236472775037e-05   6.8080301539045152e-02   2.9201080441541929e-02   5.6271139140444203e-02   1.1884828441364674e-03   3.2328990615395251e-02   1.0212521881352320e-01   1.7156525361195783e-05   2.5721049222210695e-05   5.3456400782765893e-05   7.4465870452330894e-06   1.3902675507236756e-05   1.8506490187574561e-05   2.8270708121784106e-05   9.8788586769010872e-06   2.1072515724367855e-05   2.2651743341930083e-04   2.2203736314489546e-04   1.0984517413023542e-03   6.8737138045539244e-04   5.6049889743833327e-03   1.1511120996340288e-03   3.3587451791001559e-03   2.6069018011974659e-04   1.7924852180741731e-04   2.7783269100048908e-04   1.2753783467454996e-02   1.6487255798034188e-04   2.9007862575158535e-03   7.9396543228772763e-04   4.9592382986396271e-04   1.9476610432054992e-04   2.6460160435821858e-04   7.6449040073664324e-04   8.4133539374157875e-04   3.4664603220983414e-02   5.3266755374973664e-03   1.9893590470956934e-05   1.5987996723364079e-04   9.8586938047628785e-05   6.7404059229249384e-03   4.1186400931288759e-03   1.2767573179627497e-04   1.1790644132696823e-04   1.1132739593534405e-04   2.1795057342073658e-04   6.2795210574403504e-04   4.5921211075116184e-04   1.6682668772866239e-05   4.6070947795874043e-05   1.1473825365682247e-05   1.3072126553276696e-05   1.6816648143427000e-04   6.1201183092973290e-05   2.3094745040358268e-05   3.0023760447624952e-05   2.7334791172071229e-03   3.4516802517194304e-03   4.7424687834214274e-05   3.8126308145148640e-05   6.6272060884325662e-05   2.3745413802177356e-05   1.3868490059146320e-03   1.1050600893018748e-02   4.1856673854846545e-02   4.6080483709170983e-05   5.0123311163885227e-05   1.8069750492225980e-04   4.9791906645179523e-04   2.0344224040887847e-03   7.0636112746729526e-02   1.5495487452646178e-04   1.7273067299281090e-04   1.3709735091387102e-05   7.3814318458397150e-06   2.7774798033707281e-05   3.7099611557286642e-05   8.5390209878131754e-05   5.1764995261300221e-05   5.2294904414646381e-03   7.0564374510285787e-03   8.8765077073186704e-02   2.0841975316522306e-04   2.1847934207671092e-04   2.2080678087240451e-04   2.3538168827942025e-04   1.4174013436712957e-01   3.9321412940429557e-05   2.8712847814099587e-05   2.9132833543523634e-05   4.8314704973219854e-05   1.3467962148685998e-04   5.7810722755644093e-04   1.6914290519957692e-04   1.1045101367950419e-04   1.6499334547213260e-03   5.9773749922939082e-03   3.2066554045186770e-04   4.5486408017728097e-04   5.5451574738318374e-05   5.9090653570693203e-05   7.5207145723339008e-05   4.9941096771861874e-05   7.1194716234027378e-05   1.3679162745524031e-04   5.3251263424271690e-04   2.8370078382228254e-04   1.3491108125369999e-04   5.2820891090336690e-05   1.2041425219070739e-04   1.8217070255875236e-04   1.8474212820398336e-02   2.2271436215781520e-02   6.6422180339255329e-02   1.4459421454452270e-04   1.7170051482049420e-04   4.0461281743687202e-05   2.9495740443135958e-05   1.4428787823624517e-04   2.0480139844339902e-04   4.4600784036357606e-05   4.9241619877979653e-05   1.0148701478995932e-05   1.1425373472896884e-05   8.4900955452404850e-06   9.5463662450773206e-06   1.2650329508838131e-04   1.1714530527193149e-04   8.6268117153331369e-05   7.3789458209413413e-05   1.4727579615861363e-03   1.9624630551560488e-03   1.6009397518295876e-04   6.5386174481105915e-05   4.3447106672706197e-05   5.8033167247589135e-05   1.2150653442014076e-03   4.2480078653532958e-03   2.4480870322050135e-05   1.7394090287533095e-05   1.3456982413714929e-05   7.3151790977546434e-06   1.3267308568321631e-04   1.6876054800662690e-04   2.3210487642171431e-05   2.5956442226090447e-05   1.2112266571715918e-03   1.6172351854760476e-03   3.3026375696772199e-02   7.8456231341798117e-05   1.1687746169260689e-04   1.1110633296114833e-04   8.9338024719125188e-05   7.5348862553471500e-06   8.1702879772057717e-06   9.7535871029457895e-06   5.0591658083050236e-06   2.3319676998935618e-04   1.6880725893319139e-04   5.8302192714876995e-04   7.0462804367377836e-04   3.7315874209112624e-04   1.9693637397829233e-04   2.5679482846060348e-05   3.0236657657453933e-05   3.7062832301358340e-04   7.0600300115950128e-04   3.1648643247002127e-04   2.2823105280909007e-04   8.6919985988601257e-06   1.0926754670471863e-05   3.2245598198145241e-03   2.5832561832750067e-02   2.2387055783451437e-05   2.9657368338390178e-05   2.3093694807922155e-05   1.4867759218399854e-05   3.3528636393342893e-03   7.2911765420885771e-04   8.3702959901224561e-03   4.1527716931245105e-03   1.2294150514975156e-03   5.8611477019446039e-04   1.1297472054163124e-05   4.6296337018510164e-06   2.1423252417137052e-05   1.9194334485916568e-03   1.3403644715559633e-03   1.6019203094096938e-03   1.3166075739288853e-03   1.5711240896016518e-03   1.1535977496564876e-05   1.5170383127969819e-05   8.8228203914812125e-06   7.1047396868848937e-06   1.1839862057069569e-05   1.0554636089884958e-05   4.6153667431227351e-06   9.0307581268448323e-06   6.2022353972682427e-06   5.6766152791338423e-06   1.7394533828304725e-05   5.6674063882995044e-03   4.6270872212321752e-03   2.2513710853242250e-02   3.5146638508933626e-03   9.1602410106330244e-06   1.0044430681238510e-05   4.0578788970371535e-05   2.6316765484443695e-05   2.5214127171229422e-05   2.4766658357410292e-05   3.0617232198885108e-05   3.4329086155007990e-05   1.9342483689009798e-03   6.4284350681978312e-04   1.4350610368963747e-04   1.1098249210467606e-04   1.5042668906782941e-04   8.2785046914159543e-05   6.5579592195414346e-06   8.5247783500283186e-06   2.2342830324491784e-05   2.3206082714579619e-05   3.8948944485978844e-03   5.1375456620912422e-05   3.0929781341140857e-05   1.1116980977304481e-02   1.9990306991764316e-02   4.9990133645056182e-04   3.6742336876149619e-04   2.1504965624609618e-04   4.5384240597342934e-04   3.2085799702732625e-05   3.9942271804044954e-05   4.3004659566731100e-04   6.0179549422582055e-04   2.8652724983414420e-05   1.3514711636798197e-05   6.9721591703412143e-05   1.1423508705973046e-04   6.3533005804185061e-06   7.4251147198785620e-06   5.8340008479856293e-06   9.2823649283979607e-06   5.3784864227551439e-05   6.5994380116004054e-05   2.1391528293007245e-04   2.4024071953274880e-04   1.6915146431138394e-04   2.7025559012230465e-04   1.3553079875494970e-05   2.1166600384665415e-05   1.5903992438901994e-05   1.0252304675520032e-04   9.2951782000950944e-05   5.8666304255695859e-03   1.1659683805973361e-03   6.2951791679536219e-05   1.0344432526707423e-04   7.5331195711983998e-04   1.0199970223367588e-04   3.4907665365367000e-05   3.5336283448064474e-05   1.5073526098384925e-05   2.1191281459013815e-05   2.3311694109581270e-04   1.8324211641089413e-04   4.8023259043023154e-04   9.8308422657422873e-04   1.2710385840815888e-03   2.6052095940839667e-03   2.2186025523588000e-04   2.4427647152286652e-04   1.2411350114428408e-05   1.4525435437561682e-05   4.4187418679204616e-04   3.9766266137930279e-04   1.7319297375092196e-03   1.3708708373083793e-03   1.2090303307102157e-01   1.8429064302201084e-04   1.2873052375145743e-04   9.8909160038200165e-05   1.3558857837934935e-03   1.3832514549264347e-04   2.4402593683659255e-04   8.0482388824273891e-05   7.9452300802438497e-05   8.9676432933410618e-06   1.5212144394235846e-05   4.9584308477113189e-05   4.7092867904035602e-05   2.6481025873256966e-03   5.8536144266435192e-03   1.8642448161892371e-05   1.1490716302491629e-05   3.0409799592250053e-04   7.3948654171904931e-04   7.2362443312776160e-04   1.1194879402486083e-03   1.2144601671360160e-04   1.1150068656227120e-04   1.3771235640968835e-01   1.6328124454331422e-01   1.2697539455511014e-04   1.2016392047989015e-04   2.1854119923900506e-05   1.2848055749830362e-05   1.9811853997916346e-05   1.6950878251608888e-05   3.5214319834067283e-05   6.5316729021440840e-05   1.8559154882354591e-04   2.9679209626585763e-04   2.5748140227995099e-04   1.0202923407410675e-04   7.6329729418331420e-05   2.0014934277787350e-01   2.3763406436894528e-04   2.3396858417426748e-04   3.2868486142829489e-04   1.1820369921379666e-04   1.9832302328550133e-05   1.7409841282002770e-05   9.8206015325328300e-02   1.2125803079757556e-03   3.6690834121683464e-03   5.9935230406562625e-05   7.2216887053209696e-05   7.0010978802796398e-05   1.0762200395037461e-04   3.1872488886368143e-02   8.2304741350850575e-03   6.9897827225934594e-06   1.0619237162273567e-05   1.8249713441168222e-04   1.7581823408575165e-04   3.1421681338647322e-05   8.5404920733667312e-05   7.3625864249251497e-05   9.1267253777930072e-05   1.8498550753186399e-01   4.9260021964971955e-05   2.0661332716178113e-05   4.8345664566631589e-05   7.6378374467274727e-05   2.7749793104024208e-05   6.4492789939869896e-05   5.5480405006537717e-05   3.9339231672477749e-05   1.6076102072313241e-05   4.9035695336517545e-05   1.3677327228834291e-04   9.5576411035081291e-05   2.3060709833458440e-04   1.9976510785035183e-04   1.8979889088081327e-04   1.1188187755492908e-04   7.3229970933548255e-05   2.9358244486743400e-05   9.8040811673484477e-05   1.3844084032425778e-04   3.5300698636536986e-05   1.8020754003142129e-05   2.0621651878886233e-05   2.3317763396533081e-05   3.8826377841519022e-05   4.8419904756044456e-05   2.4369107335062947e-05   2.8404197154637875e-05   1.9009399085389858e-02   5.0979092495703655e-02   5.8640856445573919e-05   6.2165413216006942e-05   4.8083703277225694e-05   4.6741190696334780e-05   1.0465868188491701e-03   2.7282419166143627e-03   1.3700373817889132e-04   1.2383306403574641e-04   1.8259331929877342e-03   8.3299195567987112e-04   9.7917473441842131e-06   1.0604343963180799e-05   3.5045572819605023e-05   5.0600469531257743e-05   6.6305629014004331e-05   7.2259720503774021e-05   6.5026054910759503e-05   9.4801520180455055e-05   1.2649074471171091e-04   7.2356786868817889e-05   1.3448637786668129e-04   1.6763685459444058e-01   3.0617112209515191e-04   1.8406549400650377e-04   5.2655854237596929e-05   3.5107265569877715e-05   2.2779433376820564e-04   4.0709108414017746e-04   3.1668980498291067e-04   2.3981007682812288e-04   2.0414978996787305e-05   1.9187572635251623e-05   2.1412392413450087e-03   5.1185125517847581e-04   4.3241826478676046e-05   2.5072282615164981e-05   1.4777085695308827e-04   1.1400704693167547e-04   1.1109371006740001e-04   1.0815288146482678e-04   2.8981925720748036e-01   1.4694849987371045e-01   4.0341762785317595e-05   2.9332851047876624e-05   1.3750412310082591e-04   6.9423217792280849e-05   9.9765549056659612e-05   8.6050920689528066e-05   1.0073484606825363e-03   7.4280971712446667e-04   3.4157096905366569e-05   3.2198629989577377e-05   2.8240449301764539e-05   2.9634132570631787e-05   2.4558310367777834e-04   3.6518664015880583e-04   1.9143720250241220e-02   2.3731703466495134e-02   7.9511739039376210e-05   9.1363904302957426e-05   1.1495535585880638e-04   1.6947229393734082e-04   5.9711187395240122e-04   2.8099734301284014e-04   2.9744634917591224e-04   3.9193536041489698e-04   1.2896074148648678e-04   2.9836937913859589e-04   4.7966237795623989e-03   1.7688921831193129e-03   6.3060411944636425e-04   2.8275419366720849e-04   1.7663179288393421e-05   1.3335765019106589e-05   2.1569360776502145e-05   8.5140050660183962e-05   1.6750079279507010e-04   1.1600911163774064e-02   2.4579093752587891e-02   5.4104807722547728e-02   1.2392024236247322e-01   2.6437193451537607e-05   2.3702250020884615e-05   3.9454468572503862e-03   1.0124824953264575e-03   1.2192941015251242e-05   1.5348160390811184e-05   1.0348595038594535e-05   7.9546407839493701e-06   2.9455650188585153e-05   1.6814927516373129e-05   1.3231658568837785e-05   9.6029771807122920e-06   3.9592963487992727e-04   5.3551426586075958e-04   5.4091214715108277e-05   8.1577104776844111e-05   8.1293125589274327e-06   5.8579310317639668e-06   4.1220845885654368e-02   8.0561589348752044e-02   5.0968632476257373e-05   9.7476594709643808e-05   2.0956040441425796e-04   2.1984663039832501e-04   2.9178500978486869e-05   5.1250324985185097e-05   2.4498564408197393e-05   1.9236810766206627e-05   1.5622286912255172e-05   1.6289711643999673e-05   1.9182025747721012e-04   1.9817801218440043e-04   7.5590973697689534e-05   1.2357616303009723e-04   8.2991751188181018e-03   7.7919673677810820e-03   6.0815457176254693e-06   5.0469933542000916e-06   7.7181721190618851e-03   1.0950559732552694e-02   8.1011022788469327e-05   8.1416977527933796e-05   4.7499434165569530e-02   6.7520529770909249e-02   4.5678443388487749e-05   2.1180851183910089e-05   7.7494999364394773e-05   1.0890840487332318e-04   3.8003116933441000e-05   2.9473158657287975e-05   3.0596624141525196e-05   1.3834590422252797e-04   1.1659006952225624e-04   7.2149851695747704e-05   1.1205327054103821e-04   2.0918569179912628e-02   2.6247130964968966e-02   8.0012573822922791e-05   9.6724035249253079e-05   5.0092678478606689e-06   3.2712621158135278e-05   6.6352694795897939e-06   7.9946528105747911e-06   2.3303717152672476e-05   2.4794006838624681e-05   6.2326315850589543e-06   7.7247