<?xml version="1.0"?>
<VTKFile type="UnstructuredGrid"  version="0.1"  >
<UnstructuredGrid>
<Piece  NumberOfPoints="3990" NumberOfCells="7722">
<Points>
<DataArray  type="Float64"  NumberOfComponents="3"  format="ascii">0 1 0  0 0 0  1 0 0  1 1 0  0.5 0 0  1 0.5 0  0.5 1 0  0 0.5 0  0.5 0.5 0  0 0.25 0  0.25 0 0  0.25 1 0  0 0.75 0  1 0.25 0  0.75 0 0  1 0.75 0  0.75 1 0  0.7083333333333333 0.2916666666666667 0  0.2916666666666666 0.7083333333333334 0  0.375 0.25 0  0.75 0.625 0  0.2569444444444444 0.4652777777777778 0  0.5366379310344828 0.7535919540229885 0  0.1875 0.1875 0  0.8125 0.8125 0  0.869047619047619 0.375 0  0.1450441919191919 0.6052714646464646 0  0.375 0.8690476190476191 0  0.5526960784313725 0.1825980392156862 0  0.8385416666666666 0.1614583333333334 0  0.1614583333333333 0.8385416666666667 0  0.6736111111111112 0.4652777777777778 0  0.1367521367521368 0.3477564102564102 0  0.6570970491253563 0.8648656830417855 0  0.5102479397556124 0.3386260301221938 0  0.3654513888888889 0.5737847222222222 0  0.6929750044954185 0.1362784921584263 0  0.388576102743835 0.411911725237599 0  0.6091269841269842 0.5942460317460317 0  0.875 0.6875 0  0.427278890279516 0.119889445139758 0  0.8544456845238095 0.5213913690476191 0  0.125 0 0  0 0.125 0  1 0.875 0  0.875 1 0  0.1280008648150532 0.4769292340226777 0  0.2695382451711197 0.3321750950221553 0  0.7031567235715964 0.7447810921428012 0  0.625 0 0  0.375 0 0  0.125 1 0  0.875 0 0  0 0.375 0  0 0.625 0  1 0.375 0  0.375 1 0  1 0.125 0  0 0.875 0  0.625 1 0  1 0.625 0  0.2979288363930608 0.1201429454643536 0  0.410919540229885 0.7484605911330049 0  0.5325041980395562 0.878905151526474 0  0.4831670727569156 0.6331060043826487 0  0.1735997378973042 0.7204747378973043 0  0.2534919507575758 0.5772372159090909 0  0.2633928571428572 0.8876488095238095 0  0.8199404761904761 0.2730654761904762 0  0.75830270586982 0.3919383189517417 0  0.5750282248382511 0.4237522353023667 0  0.6008360210023379 0.2794828358598495 0  0.08163442644334186 0.6821295860397322 0  0.08333333333333333 0.1875 0  0.2028380815996574 0.08844602719988583 0  0.2766521142611967 0.2325436572164097 0  0.90625 0.78125 0  0.890625 0.890625 0  0.7545696325008384 0.8973565441669461 0  0.5625 0.08086590340834317 0  0.09077380952380953 0.09077380952380952 0  0.4610923478694773 0.209034015149656 0  0.7542527598351648 0.5248380520595106 0  0.6459235536037465 0.3619913988405765 0  0.7560381768882634 0.20506142233852 0  0.07073252688172042 0.8125 0  0.0924753097241701 0.9078102849914793 0  0.9292674731182795 0.1875 0  0.9075246902758297 0.09218971500852073 0  0.8125 0.07073252688172045 0  0.2400955776842301 0.7869705776842302 0  0.9121050213379069 0.2781978201831695 0  0.7916878157143976 0.7239689078571988 0  0.9345238095238094 0.4375 0  0.4375 0.9345238095238095 0  0.3725616989755203 0.6651895248862173 0  0.06536271996350887 0.5625 0  0.9348362560379583 0.5625 0  0.456646798987055 0.8277247094351965 0  0.1875 0.9355758238725954 0  0.6169761231634859 0.6939779188977889 0  0.6226854751147515 0.7827911461419014 0  0.3305695598137626 0.7901697871282585 0  0.5865305325818898 0.5101085479043448 0  0.6622701297028378 0.2177663989757395 0  0.1354166666666667 0.2591702279202279 0  0 0.3125 0  0.2094429575680048 0.3936361846162499 0  0.836666296419157 0.607917407161686 0  0.6875 1 0  0.214261555450504 0.6492551722020035 0  0 0.4375 0  0.07731537126068377 0.40625 0  0.3427725432967068 0.4879566233699599 0  0.3550792513951871 0.3331953632609953 0  0.4462473953896857 0.2887834789342508 0  0.4747801464819794 0.417386052030127 0  0.8229836475148948 0.4443292349237342 0  0.7322605135514757 0.8199240278289671 0  0.6756431877205955 0.5468989748126787 0  0.1968419507215863 0.5194573482612496 0  0.3285590277777778 0.9345238095238095 0  0.8125 1 0  0.4198917601920009 0.5134893045331258 0  0.5232405503206691 0.2595791787880157 0  1 0.9375 0  0.1987510870015086 0.3025185951894431 0  0.5625 1 0  0.6005390654136388 0.9228110509230952 0  0.6411254848194414 0.07704872765442942 0  0.3357233162523242 0.1855113224530532 0  0.6730653396610877 0.6393887462324165 0  0.310966987234063 0.6240019765311626 0  0.7368737836204349 0.07457755202327881 0  0.6192316414418171 0.1485238406378594 0  0.5432429670607106 0.678552703844006 0  0.4754371679695679 0.7103946803120881 0  0.07501324890749672 0.3043839897335739 0  0.5358146975860403 0.5688321463205916 0  0.3115271739500156 0.3982137365971444 0  0.3625191397122174 0.0767854603650549 0  0.5024029442563831 0.1264128223758444 0  0.4375 0 0  0.4699946908887376 0.06379961173775725 0  0.9375 0.71875 0  0.9272105898044465 0.635671179608893 0  0.9375 1 0  0.6690971819568612 0.9331530898202766 0  0.1073454944778885 0.7499206387638554 0  0.8699082999280406 0.2232403652524313 0  0.5773118091863964 0.3548027349159383 0  0.1354166666666667 0.1428571428571428 0  0.3125 0 0  0.8241684193077341 0.9257452995055244 0  0.4352314948354036 0.3586940847489378 0  0.4351301473778832 0.5819726043539077 0  0.8073232928518163 0.3419398170341962 0  0.7775949246947366 0.1298519409204575 0  0.6875 0 0  0.7413513991851041 0.457933324954483 0  0.939453125 0.841796875 0  0.5630355154606987 0.8171875156478349 0  0.9345238095238095 0.3461466592368577 0  0.9375 0 0  1 0.0625 0  0.0625 1 0  0 0.9375 0  0.06552178593177167 0.4969053669623468 0  0.1424866619031703 0.4130277709291224 0  0.1275287182444726 0.5422946908002588 0  0.2637686595586339 0.06413888464529549 0  0.2524263535491086 0.1697437503243817 0  0.7367218397988525 0.6888573970660841 0  0.0625 0 0  0 0.0625 0  0.8463594539285995 0.7578283617857982 0  0.3128751192101563 0.2851997374369947 0  0.4015281788351144 0.1806421385113692 0  0.1910251795116588 0.4553332197174453 0  0.287797471442006 0.5222621440543902 0  0.3962628745986055 0.8097380085535307 0  0.3505895299554843 0.7304878890838692 0  0.5019151500495276 0.9356042615328103 0  0.9374389419410134 0.4999931039076005 0  0.3125 1 0  0.1875 1 0  1 0.5625 0  0.4375 1 0  1 0.3125 0  1 0.4375 0  0.8125 0 0  1 0.1875 0  0.5625 0 0  0.1875 0 0  0 0.1875 0  0 0.5625 0  0 0.6875 0  0 0.8125 0  1 0.6875 0  1 0.8125 0  0.8021696218581627 0.6612893947866073 0  0.06154922295426143 0.6239401126946708 0  0.9359375 0.9359375 0  0.4666158024849896 0.7691515918155014 0  0.2318201265217025 0.7064974250277525 0  0.1565954253579966 0.6635489312486841 0  0.1598132503680848 0.7787147500325552 0  0.3146529991605639 0.8510876378205265 0  0.1461873209418733 0.05982804528877814 0  0.06109554988524315 0.2446551776247686 0  0.8054950308560754 0.5564226538848541 0  0.470541749491976 0.8853316336952531 0  0.6948472567465137 0.4042308563372457 0  0.8802828472348889 0.4658893256343853 0  0.6788075634946739 0.7974194205806069 0  0.2155048659603867 0.2428201584940968 0  0.8131223143423806 0.2132171049028394 0  0.4330798005432235 0.6671274900735726 0  0.6015279126162613 0.2187368078743274 0  0.8061636571464289 0.8703766630361714 0  0.7008230445061776 0.3478568388444072 0  0.8638466246958771 0.3147095987735538 0  0.204801534004265 0.8789209409594009 0  0.2449006736431132 0.9424182882803838 0  0.7611268409371427 0.2643056884799992 0  0.7552800864046191 0.7678006649959446 0  0.5983639638906616 0.864113435029236 0  0.1956559506814437 0.577281203577426 0  0.3527670268164207 0.1320469097565204 0  0.7530364577483248 0.3262386077083089 0  0.4535919187979363 0.4690107087451527 0  0.8824869791666666 0.8336588541666666 0  0.8814453125 0.9451171875 0  0.5582987942628019 0.622421666543858 0  0.6817532446064828 0.6939001801354731 0  0.3830295138888889 0.9450968952922078 0  0.4140603937012541 0.05211333372716105 0  0.5535864501303013 0.3060591985391672 0  0.6560130086346878 0.2729726562211558 0  0.890203140221684 0.5948314305427268 0  0.7043857725999024 0.593980890020804 0  0.5105843922695152 0.8016828014338627 0  0.05365910753708378 0.7315110031682004 0  0.616904573672261 0.4621186633436136 0  0.5338511646455415 0.387875898899613 0  0.5231769258947843 0.4477682463140762 0  0.650302973237622 0.7370722302085519 0  0.3927483139621257 0.4662414504529014 0  0.8034595960585199 0.4972538342758211 0  0.7738337841682438 0.9496376207663251 0  0.7193737507158268 0.954685447650112 0  0.482525916480686 0.5528257169991676 0  0.2533501157346781 0.2809495420003238 0  0.3118487924482243 0.5702930126570319 0  0.6257598847669529 0.4104163315430518 0  0.1354166666666667 0.1955605158730158 0  0.04166666666666666 0.15625 0  0.3956448985530264 0.6174149462065157 0  0.8102897701818546 0.3938784238208349 0  0.2641154190013625 0.8344469561943118 0  0.642852220770013 0.5068794586563659 0  0.05271458179508221 0.355846947336007 0  0.7021551360070266 0.8921457280225779 0  0.5692125776683765 0.1328512638850284 0  0.5206162811937602 0.04865158770992991 0  0.6001838442201555 0.04540556991297563 0  0.2597716608242787 0.4118346398477178 0  0.4040584599473195 0.3179589136784675 0  0.1480337679295207 0.8941560631483065 0  0.1344356707112281 0.9466251177415842 0  0.7114696411829317 0.4983917389078826 0  0.7585704698442475 0.5751926345944629 0  0.2189131956390871 0.04022068508159698 0  0.2476935455192043 0.1123642267635843 0  0.185995005654517 0.1365524537205238 0  0.6223414373308711 0.643380839165121 0  0.5732602596637543 0.7190051747306219 0  0.268358222364537 0.6586246524467934 0  0.3265879848129173 0.2369791782191225 0  0.1267095595787346 0.7034787238999181 0  0.1115202922226038 0.6421997933884982 0  0.3128688392940203 0.07260997451790079 0  0.550724900485678 0.9253360991633187 0  0.7142608810459105 0.2384904702214873 0  0.7045869185243887 0.1871826897887429 0  0.890625 0.734375 0  0.953125 0.765625 0  0.2111812642821677 0.8286209446459138 0  0.9590293078204457 0.09375 0  0.953431269039847 0.1435719386408004 0  0.04097069217955424 0.90625 0  0.04656873096015299 0.8564280613591996 0  0.1078743037981226 0.8541621766048062 0  0.8921256962018773 0.1458378233951939 0  0.8521576979194619 0.1084496634207678 0  0.8655663982740958 0.05464346096571447 0  0.04005659640905543 0.09375 0  0.1001448316533417 0.04246776244228261 
[...]
<CellData  Scalars="f_3269605"> 
<DataArray  type="Float64"  Name="f_3269605"  format="ascii">5.6406418128672943e-05   2.7834004584809110e-05   1.9460465763895317e-05   6.0903746305166366e-06   5.7570189416998944e-05   1.6379076532259663e-05   1.8263344867363459e-03   2.6899611400428045e-02   1.1102971313857287e-05   2.3657159839370219e-05   2.5543081318555547e-05   9.2899715985310892e-04   1.9351372088020802e-03   2.0679327164299354e-04   2.6328295877250452e-04   1.2155244133340986e-04   1.9038999913562968e-04   1.2397000333590381e-04   3.3908275051864240e-04   3.9267543170040076e-05   2.4386129007489543e-05   1.2234219016644268e-04   6.5127545282739780e-05   5.5706675803258966e-04   5.5575058411782202e-05   1.9055358590519568e-03   1.4463819804661155e-05   1.0713932753734025e-05   2.3025221432581556e-02   2.3426749791157814e-05   6.8523957345755589e-05   1.5696807717116774e-04   3.8838463948059851e-05   2.0192171999389680e-03   2.5514554872743605e-05   2.9401516314982947e-05   7.6563084478306747e-05   1.0962337114949442e-03   9.7939593288175829e-06   8.3220609752719270e-05   9.6242075943079900e-05   5.7012923710335322e-05   1.8416885592049186e-04   2.3188446657946180e-04   8.8065814291676075e-06   1.0343188598351326e-03   2.4833130767067531e-04   5.4986392040395248e-06   4.2059722370321384e-03   1.8158779459957837e-03   5.0493493467252040e-03   1.2561900729314034e-02   1.9589627700916830e-04   2.2840511275372640e-05   6.5565072542385700e-05   1.0725266751835719e-03   1.2639029660457555e-04   2.0250419039148769e-05   1.5274878406166083e-05   2.4894095281256597e-03   1.8775109361162327e-03   4.3209736595726477e-06   6.1338971415102290e-05   2.4650418329048179e-04   5.5253976018265923e-04   8.2248953933110973e-05   5.9874973219382910e-04   4.5850745328878827e-06   3.9270245716646460e-02   6.5451693545373571e-02   4.9141917055722503e-02   9.6242559826522310e-04   2.6520990101340806e-05   1.4936365414375019e-04   3.9907326732383115e-04   2.1598689616776448e-03   1.1643616258874734e-03   1.7045550814196554e-04   2.4543349109178197e-04   4.6442545038373896e-04   3.2874298404396093e-04   8.6852333553533726e-05   1.9732002076513683e-04   2.2371752484452237e-02   3.3876218238000993e-05   1.5518006981630422e-05   6.6874998597639255e-05   6.5423030422027107e-05   1.1252115004366009e-04   6.0072718456487029e-05   1.5843000258862983e-05   3.5906017422891199e-05   2.7264311526589120e-05   5.0978830018114944e-06   1.8026868312148711e-05   1.9183713695982219e-05   1.7473698920138284e-05   6.4005537708142698e-02   4.6028626051821493e-03   2.3289659506536087e-05   2.8639014247349307e-05   3.5870097016119944e-05   1.9495067361120512e-05   1.0964175172354331e-04   1.5216300698830802e-04   9.3592627751466743e-05   4.4486794171545632e-05   1.5493706475750180e-05   1.0187265837779532e-05   2.3474778466508707e-03   1.4760839765622425e-03   7.0942515215563149e-06   1.9856649806917680e-05   6.9173447100345653e-06   1.3106040154262593e-05   1.1396285260887619e-03   1.6439323021498212e-04   4.4246467119063051e-05   2.1558930135342669e-04   7.4247490103958086e-04   4.7092730014276088e-03   1.6366281618535362e-02   1.4166987794971865e-04   1.4267639703896182e-04   1.4456928414601067e-04   1.4872832271412863e-04   1.2681247281149424e-04   1.2524098034085397e-04   1.8569315028892426e-02   2.3274416430699423e-04   8.9603433757843448e-05   1.8789540927731331e-04   1.5891262704904987e-03   8.5847026899935172e-04   3.5358403418762827e-03   1.1825300291954732e-02   1.4905398951378087e-04   9.5737498868216493e-05   1.4756579065241708e-05   3.0344032087787844e-05   4.1653967616718252e-05   2.0475815504341159e-05   5.7499621307727895e-05   2.7372708225576039e-05   1.1156537508177011e-04   1.2541789184725090e-04   1.2673683146548693e-03   4.2758483510040805e-04   1.1317434584236566e-03   2.0503227659856810e-02   2.2769905234952222e-04   1.7431315651288753e-04   2.0716820495868171e-04   2.8782708539772515e-05   5.3558318592337459e-05   1.0539004715967427e-04   1.4518324543782920e-04   2.7372576648071122e-05   3.5860286877283043e-05   9.8174441138066017e-05   3.7877268759784010e-05   5.8808497389158909e-05   7.5719760814618376e-05   1.0237283724139369e-04   6.2404413654214703e-05   7.8523844030063369e-04   9.0014137997720966e-04   1.5666633030401769e-04   5.7913819033634404e-05   4.2884108468750019e-05   5.3818881686037661e-05   2.8334287921061197e-03   2.0092755341212407e-01   5.9773060504860129e-02   1.6651591672517478e-04   1.2928511672017647e-04   2.7349089345555634e-05   2.7359790781288067e-05   1.6977238248187976e-02   5.3621879519305873e-02   5.5682785206104489e-05   6.3968209257603902e-05   3.2021049646201838e-02   1.4413682482163515e-01   1.9875833070697697e-02   5.1459979052532114e-02   1.2499458427707218e-05   2.1768822958354619e-05   2.3342908437646574e-05   1.3808970439851072e-04   2.3606931747719315e-04   2.2455911111953712e-04   2.0882331097122478e-04   9.5756134927503760e-06   1.0472499773494528e-05   1.1839832743354585e-05   1.6248112496828480e-05   3.6828039147052930e-04   1.8464152558143071e-04   1.9820488468468906e-04   2.2430208831679654e-04   1.3402650291181446e-05   6.2633681034429163e-05   6.9172480074304685e-05   1.2662757289963537e-04   4.3761665112776802e-05   1.3791961177282214e-04   1.7149492779111697e-05   2.6886256776094585e-05   2.6074532544637072e-05   1.7378314953729870e-05   1.5802430608564778e-05   1.7233984246215003e-05   1.1398544676676984e-03   1.5968739182528468e-03   3.2584183763495738e-04   4.2807499216583590e-02   7.4782302601011777e-02   1.1507917199985286e-03   1.3796276743851990e-03   1.7986762131947192e-05   1.9331929909170708e-05   1.3936268108724319e-04   4.7662593059255383e-05   4.3997823511190139e-06   1.5222847940679671e-05   6.4256865572464572e-03   1.1559785150030590e-02   1.9207977620811033e-05   4.2687197131811220e-05   3.2620727105807851e-04   1.3813411934444051e-04   2.1424363069372988e-05   3.3660510104181700e-05   9.1415544469735212e-06   2.3841207524160959e-05   1.6651007880665098e-05   6.1574308345801844e-05   6.0093538784500334e-05   1.5346068642536783e-02   2.1401657453348467e-03   2.0870978503167870e-04   7.6715449789188493e-05   9.4427768511844910e-05   1.7347383262298036e-05   4.3152324055249699e-03   9.2429299926083744e-05   6.1511891855706339e-05   7.7762843226927443e-05   2.5277981521275106e-05   1.4837686905392721e-04   2.6095276140109181e-04   1.9555641357760047e-05   1.3001911411027590e-05   9.8617614533138113e-06   1.6040219191178177e-05   2.7317113754965228e-04   5.0939182776142742e-04   1.6302106441972194e-05   1.2132383908389615e-05   2.3745687810902321e-03   5.5037449249714307e-03   4.1767840832545194e-05   3.4636279655042760e-05   1.8961672436510706e-05   2.1820537026341478e-05   5.6963959780015233e-05   7.5058315007998078e-05   9.6038078536572432e-05   1.1676512524675566e-04   7.9611350900476161e-04   3.9891396327568625e-04   2.3282903952885183e-04   3.2103671714153953e-04   7.3054904883054980e-02   1.2531406223612043e-01   8.8656912772282914e-05   7.1170763504614196e-02   3.0465922269500609e-02   6.6575558026231441e-02   5.8178336560350829e-04   3.0938375716513044e-02   7.2281150737000296e-02   2.5644607739888657e-05   3.0928287231649536e-05   5.8840366610165544e-05   6.1937932552599363e-06   1.6982845299320626e-05   2.2419641810712561e-05   1.6376808672048565e-05   1.2508785073664961e-05   2.1386322010199252e-05   1.8610852477636815e-04   2.9018952715898595e-04   1.3422626592267703e-03   1.6978201666509323e-03   5.4546999170786174e-03   1.1331488111200280e-03   1.1065003074491682e-02   5.1755600903528333e-04   3.1880786631705135e-04   1.5002056146572052e-04   2.0897017363179771e-02   2.5465633106697041e-04   3.1510393981767442e-03   1.2041085885632803e-03   4.5573900536399601e-04   2.3155797276895728e-04   4.4920702464883438e-04   1.0610843403565438e-03   1.1027659529254151e-03   2.8834114469753404e-02   6.5976432521162422e-03   1.7348748851261261e-05   1.5309870328284394e-04   1.1734290267791210e-04   6.6822260938643957e-03   4.0159466849200368e-03   1.2997804002766062e-04   5.8421612508657633e-05   1.0672936315703591e-04   2.3433452247332363e-04   5.1736716292406608e-04   4.3620807445380493e-04   1.5676676282020717e-05   3.5313710030105659e-05   1.3343443823839863e-05   2.1953652174921416e-05   1.7313602183871002e-04   5.1753459100494225e-05   2.2380523502190632e-05   2.5130542498869467e-05   1.9988662410451445e-03   1.9024738941810745e-03   5.6505980410684740e-05   3.7370966687119258e-05   7.3221847226294406e-05   2.2107292899909720e-05   2.0417246465082579e-03   1.1574784131902218e-02   3.9193577902029139e-02   6.2025105457653396e-05   4.7116027230677437e-05   2.5059652399541104e-04   5.8695055691946327e-04   1.7889223829982469e-03   3.9188843200744707e-02   2.8997917668513738e-04   1.2632165513793315e-04   1.5500449753668143e-05   1.0526915170563216e-05   3.2685483136330906e-05   3.8185730760164499e-05   1.0214745667942118e-04   4.8134173550086388e-05   4.5729538239384949e-03   6.9746124454634307e-03   1.0351484569386778e-01   1.5489530460428103e-04   2.3987574284581252e-04   2.4687390828024696e-04   2.2519799981273611e-04   1.4151613461041518e-01   5.3793758954449117e-05   2.2389920510387548e-05   2.8289107674948588e-05   3.0625206655951546e-05   2.4105167021288998e-04   7.2242233874227275e-04   1.8278297661031918e-04   1.4225596926762123e-04   1.8508059490379110e-03   6.0456181985142207e-03   4.3188987778436329e-04   3.2627451261150645e-04   6.5961921408245249e-05   7.4363628700806387e-05   6.2199455323670171e-05   4.4126803708757218e-05   1.1602061837467071e-04   1.4356735646180871e-04   4.0053238042066111e-04   3.7564505334768898e-04   1.0503266251233204e-04   7.8553550447584071e-05   1.1993733370922409e-04   1.7930544918529285e-04   1.5971164391785579e-02   2.0040869058270027e-02   6.7742401408137101e-02   1.7611752909941732e-04   1.5047456602223854e-04   3.5417668347513356e-05   2.0311592417264329e-05   1.4109734291535290e-04   1.4761837471156066e-04   5.9110073495946764e-05   5.3735523735872941e-05   9.2813884543707679e-06   8.8462716000625405e-06   1.0949330597837488e-05   1.1996177351704760e-05   1.2770675185747285e-04   1.4354303504703392e-04   9.9079990940988409e-05   5.8351582173718952e-05   2.9625807321994714e-03   2.1384879767781394e-03   9.1767755273176876e-05   8.2255085168164558e-05   6.2742763642324292e-05   5.8497336874251285e-05   1.1189742339802902e-03   3.1154239418619890e-03   2.6423270550033278e-05   2.0241613124399983e-05   1.6289335003685836e-05   6.2749461951000327e-06   8.9724197728455283e-05   2.0862826327014726e-04   3.3045343356634750e-05   2.5209667525347137e-05   1.7708149192931855e-03   1.9427009377112237e-03   4.1345036393419625e-02   8.8921423582837830e-05   8.7222991522341200e-05   9.9247371696533328e-05   1.1389271660311104e-04   5.2054403278109761e-06   9.4863616418190982e-06   6.6329229905711080e-06   1.7202628008949144e-05   9.2876262917848120e-06   7.1090275670240682e-06   2.1265962821519495e-04   1.6159762774077576e-04   6.7830816987206951e-04   7.4952674734778634e-04   2.4532571291543216e-04   1.7264290749594214e-04   2.9863105290048065e-05   2.4434960094794127e-05   2.7762329662898587e-04   6.7128992818987179e-04   2.9761253413807827e-04   3.5081723134648620e-04   1.0403339345712187e-05   6.4671573534535814e-06   3.2705801244297425e-03   1.9723052780410970e-02   2.7331053753385155e-05   3.4100240152449232e-05   2.0771439971753394e-05   1.5533961752230283e-05   2.9438980785558089e-03   7.6364025744516772e-04   8.5394754693706287e-03   3.3237614046745818e-03   8.1799596262649898e-04   7.2116892793664257e-04   1.0576999512673830e-05   8.5196922808765324e-06   2.9135752780738726e-05   1.8015047489069584e-03   1.5755497507521110e-03   1.3558310815494643e-03   1.5066983657342672e-03   1.9653311935573861e-03   1.0010122323550780e-05   1.1403757231584025e-05   7.2586259703228502e-06   6.2364571819971373e-06   1.0643495328440812e-05   1.0831651675512829e-05   1.0119819435164140e-05   7.1365087075118575e-06   1.2044608686176107e-05   1.1239088171146923e-05   1.7100127345408319e-05   5.8058308715656952e-03   4.9298200410242557e-03   1.8994104393109643e-02   3.4533930851792230e-03   1.0669473095849016e-05   8.7368045266854983e-06   3.7976654952831549e-05   2.3696297864596312e-05   2.5792755789407309e-05   2.7929835518182675e-05   1.9029438116774037e-05   4.4555639990320914e-05   9.9212171599377219e-04   7.5949049595031568e-04   1.3419927006557542e-04   1.2926405387358501e-04   5.9280582292536883e-05   8.6850678860727490e-05   1.5687936571877097e-05   7.9185481289879832e-06   2.3176550277697093e-05   2.3593851121439263e-05   4.7674166195881005e-03   5.0676214422994890e-05   2.7754771697480100e-05   1.0530048134744126e-02   1.5564532637026363e-02   8.2301807987308049e-04   8.1596866118503406e-04   1.9964484369250924e-04   4.7554509300665518e-04   3.3056502147973671e-05   4.8743966186244317e-05   5.3318540573324728e-04   8.7475961354349120e-04   3.0036880570414693e-05   1.1430533182598100e-05   6.6192939517574218e-05   1.1817281810867491e-04   6.8096292956295844e-06   1.0106235954411157e-05   7.0685367194170040e-05   5.5389516703329301e-05   2.8489011001638093e-04   3.0917634666559454e-04   2.2676299098811211e-04   1.9491123193773573e-04   1.6846969620276903e-05   2.3882397472454462e-05   1.2718809994468248e-05   8.1398303100214139e-05   4.7576078312315738e-05   4.3491753696985377e-03   1.3412118510177668e-03   4.6755950631665653e-05   8.6052818741863337e-05   2.2495079001333217e-04   5.2889064997520747e-05   3.3600190188473318e-05   4.1734836038282160e-05   1.0976383238772495e-05   2.0388817324932000e-05   2.6464362289183751e-04   9.7490343479786866e-05   4.8522545944406476e-04   8.5170363053071183e-04   1.2913948410206494e-03   2.8604217821783782e-03   3.6038317820836260e-04   3.7198444090777053e-04   1.1831295496129800e-05   1.6183110787814091e-05   5.5953515765373089e-04   7.6693770339690071e-04   3.0124145816184701e-03   1.3713962764473904e-03   1.1070543054895647e-01   2.2530469432546597e-04   1.8305032300488150e-04   7.7347852266665122e-05   1.7219484830985525e-03   2.2518666103929510e-04   2.0171597747663315e-04   5.3229142641999261e-05   5.5117393283843759e-05   6.6980951321245570e-06   9.8304278187295569e-06   5.3329563660473843e-05   8.7626214650900438e-05   5.5945233401045753e-03   6.8785863080084502e-03   2.3993867176885799e-05   1.1278069953398034e-05   2.3192309536341851e-04   7.6180728957732553e-04   6.3761144907608020e-04   1.3289074890440989e-03   1.0026868347232608e-04   9.5438376402267946e-05   1.0789440975029266e-01   1.3775007263404851e-01   2.7989729703276073e-04   1.3229924653934463e-04   1.6027014185760210e-05   1.4166827540960667e-05   1.5159637035354431e-05   2.0707713698346641e-05   1.9828935322275696e-05   1.6723870806889154e-05   2.2876687613989852e-04   2.9398113932231927e-04   3.7199231866596717e-04   1.0093345238552356e-04   9.8782771991585801e-05   1.1730543425135384e-01   2.8556541568127135e-04   2.7609766095972304e-04   3.6919132984462004e-04   2.4970909780706391e-04   1.9134987634292122e-05   2.3856974537860573e-05   9.8769473682720405e-02   1.0335267413774038e-03   3.1294594537530506e-03   5.7330951241411705e-05   5.5720704658201522e-05   9.3714679810876541e-05   1.0106666759349157e-04   2.8965705725643442e-02   1.1183009113327510e-02   1.9934973262631159e-04   1.2869711910042824e-04   2.9639198371420295e-05   1.1226724399175947e-04   7.0541729536539770e-06   8.5042927137844603e-06   6.4668972651707289e-05   9.5219217613963915e-05   1.8107980530564199e-01   4.7590347782123328e-05   5.9724477181588771e-05   5.4138388999882506e-05   7.2047694054139149e-05   2.6282936419959962e-05   3.5773237305552133e-05   6.0430385032173227e-05   5.3407855769158240e-05   1.6733738282583042e-05   4.3969297084228697e-05   1.0263080234247970e-04   1.0220824606160148e-04   3.0489713223839091e-04   2.8577206503442327e-04   1.4694701940645691e-04   1.2811154469816660e-04   8.9523628212032257e-05   4.1757574246664814e-05   1.1302521530683082e-04   1.6543776708820537e-04   2.8620796572385375e-05   1.9349399175843110e-05   2.8842423757379914e-05   3.9913087389657924e-05   3.4082975672799446e-05   5.0577537245174963e-05   1.9146232574785408e-05   2.9639781295433869e-05   1.8385713458092534e-02   3.1193074604958914e-02   3.3575987964401345e-05   6.0699996580787846e-05   6.6575879870220715e-05   5.3335451000112808e-05   1.3691515760162524e-03   2.4492996026305273e-03   1.6256155974566028e-04   1.2443366901634882e-04   1.9558285152064593e-03   8.3304865905643179e-04   8.4587069436854787e-06   9.9868721008117007e-06   3.8075167488004820e-05   7.0628200273744964e-05   8.9296474894983005e-05   7.9312277815553198e-05   7.0214213800240250e-05   1.4272657668201481e-04   8.5812227849720263e-05   8.3994325296771340e-05   1.7056002228929613e-04   1.5899206028902124e-01   2.1148080141275791e-04   1.9473466055998140e-04   7.2161487732897150e-05   3.8240382741043218e-05   2.3364917651429585e-04   6.4122526315038889e-04   2.5240871724561292e-04   3.5499911171410042e-04   1.8641568973009139e-05   3.0182125132046750e-05   2.1410069472156644e-03   7.7168436357697313e-04   4.3473515971346156e-05   2.5966484182986471e-05   2.1834953337713644e-04   9.7206505246959427e-05   1.6892163048613809e-04   8.5971771846619070e-05   2.9168999249323979e-01   1.5102563929071469e-01   4.1716812878201428e-05   3.2155241882883331e-05   1.0140189990587452e-04   6.2472967229558403e-05   1.4972739091580000e-04   1.4802685616387381e-04   9.3061298908149112e-04   5.4658370023588296e-04   3.5830463233373807e-05   3.7820574664453421e-05   3.1468480606804040e-05   4.2105112427237663e-05   4.6921240403541509e-04   6.1591772464446835e-04   2.3901129168065322e-02   4.1281243667318085e-02   9.3092090881086276e-05   8.7187397801533498e-05   1.8295822972443592e-04   8.5813976236653378e-05   5.6935535490243948e-04   4.3761092542916641e-04   3.0308522505358794e-04   2.7616322554837501e-04   1.6380549567199737e-04   3.8826726797457539e-04   2.5074206406790400e-03   1.2734904737040683e-03   5.9808525853899755e-04   2.2527674042989725e-04   1.5544468482064342e-05   1.7586522591654420e-05   1.9650303541040190e-05   9.5944262070826820e-05   1.5214438637532290e-04   1.0557666276080079e-02   2.3124931087247103e-02   6.1667309073889627e-02   1.2307377009101035e-01   3.0959826478532035e-05   2.2661279281502481e-05   3.6631457823830824e-03   1.4869387019711242e-03   1.8996266013792170e-05   1.9723567922774794e-05   2.1205408147488532e-05   9.3229385586449025e-06   2.4839784598600147e-05   1.9990793389349549e-05   1.1965241952215146e-05   9.8047231437556628e-06   5.5182755701600902e-04   6.4016752389422431e-04   6.4701018897151858e-05   8.5539875743102407e-05   1.4264251983630270e-05   1.5040117288684558e-05   5.4754534106471707e-02   9.4671316372595099e-02   5.7210130448417120e-05   5.4079655621339514e-05   2.6945551944983627e-04   1.9801805167092817e-04   3.1918603178633961e-05   1.5233193467368026e-05   1.5791915209147120e-05   2.3356943212441834e-05   1.4652587336855320e-05   1.6395552925125717e-05   1.1399250400094303e-04   2.3104715460457658e-04   5.7094046471588682e-05   1.3048216615965636e-04   9.9586389908595911e-03   9.1980840237274614e-03   1.0141019121017602e-05   8.9396630757334350e-06   6.7850535489877798e-03   9.2310866084949865e-03   7.6739081121753329e-05   8.4351561173987154e-05   7.3600530679541032e-02   1.4273148815679210e-01   4.0980897672143911e-05   2.2819696776359479e-05   1.1074548298530202e-04   9.0434977834275595e-05   4.6014407110777940e-05   3.6409163693991457e-05   3.2398782567109852e-05   5.9830880394374714e-05   1.2153967183724620e-04   7.7459675392984247e-05   1.0924968136308966e-04   2.0443355324533893e-02   2.3497648865501618e-02   1.0688919146598052e-04   1.0418895323961490e-04   1.0160191885470594e-05   2.5040536564387841e-05   4.4450537528769721e-06   6.9791829720645758e-06   1.5788096912341354e-05   1.9374242394815263e-05   1.0296196773955600e-05   6.5721