<?xml version="1.0"?>
<VTKFile type="UnstructuredGrid"  version="0.1"  >
<UnstructuredGrid>
<Piece  NumberOfPoints="2066" NumberOfCells="3980">
<Points>
<DataArray  type="Float64"  NumberOfComponents="3"  format="ascii">0 1 0  0 0 0  1 0 0  1 1 0  0.5 0 0  1 0.5 0  0.5 1 0  0 0.5 0  0.5 0.5 0  0 0.25 0  0.25 0 0  0.25 1 0  0 0.75 0  1 0.25 0  0.75 0 0  1 0.75 0  0.75 1 0  0.7083333333333333 0.2916666666666667 0  0.2916666666666666 0.7083333333333334 0  0.375 0.25 0  0.75 0.625 0  0.2569444444444444 0.4652777777777778 0  0.5366379310344828 0.7535919540229885 0  0.1875 0.1875 0  0.8125 0.8125 0  0.869047619047619 0.375 0  0.1450441919191919 0.6052714646464646 0  0.375 0.8690476190476191 0  0.5526960784313725 0.1825980392156862 0  0.8385416666666666 0.1614583333333334 0  0.1614583333333333 0.8385416666666667 0  0.6736111111111112 0.4652777777777778 0  0.1367521367521368 0.3477564102564102 0  0.6570970491253563 0.8648656830417855 0  0.5102479397556124 0.3386260301221938 0  0.3654513888888889 0.5737847222222222 0  0.6929750044954185 0.1362784921584263 0  0.388576102743835 0.411911725237599 0  0.6091269841269842 0.5942460317460317 0  0.875 0.6875 0  0.427278890279516 0.119889445139758 0  0.8544456845238095 0.5213913690476191 0  0.125 0 0  0 0.125 0  1 0.875 0  0.875 1 0  0.1280008648150532 0.4769292340226777 0  0.2695382451711197 0.3321750950221553 0  0.7031567235715964 0.7447810921428012 0  0.625 0 0  0.375 0 0  0.125 1 0  0.875 0 0  0 0.375 0  0 0.625 0  1 0.375 0  0.375 1 0  1 0.125 0  0 0.875 0  0.625 1 0  1 0.625 0  0.2979288363930608 0.1201429454643536 0  0.410919540229885 0.7484605911330049 0  0.5325041980395562 0.878905151526474 0  0.4831670727569156 0.6331060043826487 0  0.1735997378973042 0.7204747378973043 0  0.2534919507575758 0.5772372159090909 0  0.2633928571428572 0.8876488095238095 0  0.8199404761904761 0.2730654761904762 0  0.75830270586982 0.3919383189517417 0  0.5750282248382511 0.4237522353023667 0  0.6008360210023379 0.2794828358598495 0  0.08163442644334186 0.6821295860397322 0  0.08333333333333333 0.1875 0  0.2028380815996574 0.08844602719988583 0  0.2766521142611967 0.2325436572164097 0  0.90625 0.78125 0  0.890625 0.890625 0  0.7545696325008384 0.8973565441669461 0  0.5625 0.08086590340834317 0  0.09077380952380953 0.09077380952380952 0  0.4610923478694773 0.209034015149656 0  0.7542527598351648 0.5248380520595106 0  0.6459235536037465 0.3619913988405765 0  0.7560381768882634 0.20506142233852 0  0.07073252688172042 0.8125 0  0.0924753097241701 0.9078102849914793 0  0.9292674731182795 0.1875 0  0.9075246902758297 0.09218971500852073 0  0.8125 0.07073252688172045 0  0.2400955776842301 0.7869705776842302 0  0.9121050213379069 0.2781978201831695 0  0.7916878157143976 0.7239689078571988 0  0.9345238095238094 0.4375 0  0.4375 0.9345238095238095 0  0.3725616989755203 0.6651895248862173 0  0.06536271996350887 0.5625 0  0.9348362560379583 0.5625 0  0.456646798987055 0.8277247094351965 0  0.1875 0.9355758238725954 0  0.6169761231634859 0.6939779188977889 0  0.6226854751147515 0.7827911461419014 0  0.3305695598137626 0.7901697871282585 0  0.5865305325818898 0.5101085479043448 0  0.6622701297028378 0.2177663989757395 0  0.1354166666666667 0.2591702279202279 0  0 0.3125 0  0.2094429575680048 0.3936361846162499 0  0.836666296419157 0.607917407161686 0  0.6875 1 0  0.214261555450504 0.6492551722020035 0  0 0.4375 0  0.07731537126068377 0.40625 0  0.3427725432967068 0.4879566233699599 0  0.3550792513951871 0.3331953632609953 0  0.4462473953896857 0.2887834789342508 0  0.4747801464819794 0.417386052030127 0  0.8229836475148948 0.4443292349237342 0  0.7322605135514757 0.8199240278289671 0  0.6756431877205955 0.5468989748126787 0  0.1968419507215863 0.5194573482612496 0  0.3285590277777778 0.9345238095238095 0  0.8125 1 0  0.4198917601920009 0.5134893045331258 0  0.5232405503206691 0.2595791787880157 0  1 0.9375 0  0.1987510870015086 0.3025185951894431 0  0.5625 1 0  0.6005390654136388 0.9228110509230952 0  0.6411254848194414 0.07704872765442942 0  0.3357233162523242 0.1855113224530532 0  0.6730653396610877 0.6393887462324165 0  0.310966987234063 0.6240019765311626 0  0.7368737836204349 0.07457755202327881 0  0.6192316414418171 0.1485238406378594 0  0.5432429670607106 0.678552703844006 0  0.4754371679695679 0.7103946803120881 0  0.07501324890749672 0.3043839897335739 0  0.5358146975860403 0.5688321463205916 0  0.3115271739500156 0.3982137365971444 0  0.3625191397122174 0.0767854603650549 0  0.5024029442563831 0.1264128223758444 0  0.4375 0 0  0.4699946908887376 0.06379961173775725 0  0.9375 0.71875 0  0.9272105898044465 0.635671179608893 0  0.9375 1 0  0.6690971819568612 0.9331530898202766 0  0.1073454944778885 0.7499206387638554 0  0.8699082999280406 0.2232403652524313 0  0.5773118091863964 0.3548027349159383 0  0.1354166666666667 0.1428571428571428 0  0.3125 0 0  0.8241684193077341 0.9257452995055244 0  0.4352314948354036 0.3586940847489378 0  0.4351301473778832 0.5819726043539077 0  0.8073232928518163 0.3419398170341962 0  0.7775949246947366 0.1298519409204575 0  0.6875 0 0  0.7413513991851041 0.457933324954483 0  0.939453125 0.841796875 0  0.5630355154606987 0.8171875156478349 0  0.9345238095238095 0.3461466592368577 0  0.9375 0 0  1 0.0625 0  0.0625 1 0  0 0.9375 0  0.06552178593177167 0.4969053669623468 0  0.1424866619031703 0.4130277709291224 0  0.1275287182444726 0.5422946908002588 0  0.2637686595586339 0.06413888464529549 0  0.2524263535491086 0.1697437503243817 0  0.7367218397988525 0.6888573970660841 0  0.0625 0 0  0 0.0625 0  0.8463594539285995 0.7578283617857982 0  0.3128751192101563 0.2851997374369947 0  0.4015281788351144 0.1806421385113692 0  0.1910251795116588 0.4553332197174453 0  0.287797471442006 0.5222621440543902 0  0.3962628745986055 0.8097380085535307 0  0.3505895299554843 0.7304878890838692 0  0.5019151500495276 0.9356042615328103 0  0.9374389419410134 0.4999931039076005 0  0.3125 1 0  0.1875 1 0  1 0.5625 0  0.4375 1 0  1 0.3125 0  1 0.4375 0  0.8125 0 0  1 0.1875 0  0.5625 0 0  0.1875 0 0  0 0.1875 0  0 0.5625 0  0 0.6875 0  0 0.8125 0  1 0.6875 0  1 0.8125 0  0.8021696218581627 0.6612893947866073 0  0.06154922295426143 0.6239401126946708 0  0.9359375 0.9359375 0  0.4666158024849896 0.7691515918155014 0  0.2318201265217025 0.7064974250277525 0  0.1565954253579966 0.6635489312486841 0  0.1598132503680848 0.7787147500325552 0  0.3146529991605639 0.8510876378205265 0  0.1461873209418733 0.05982804528877814 0  0.06109554988524315 0.2446551776247686 0  0.8054950308560754 0.5564226538848541 0  0.470541749491976 0.8853316336952531 0  0.6948472567465137 0.4042308563372457 0  0.8802828472348889 0.4658893256343853 0  0.6788075634946739 0.7974194205806069 0  0.2155048659603867 0.2428201584940968 0  0.8131223143423806 0.2132171049028394 0  0.4330798005432235 0.6671274900735726 0  0.6015279126162613 0.2187368078743274 0  0.8061636571464289 0.8703766630361714 0  0.7008230445061776 0.3478568388444072 0  0.8638466246958771 0.3147095987735538 0  0.204801534004265 0.8789209409594009 0  0.2449006736431132 0.9424182882803838 0  0.7611268409371427 0.2643056884799992 0  0.7552800864046191 0.7678006649959446 0  0.5983639638906616 0.864113435029236 0  0.1956559506814437 0.577281203577426 0  0.3527670268164207 0.1320469097565204 0  0.7530364577483248 0.3262386077083089 0  0.4535919187979363 0.4690107087451527 0  0.8824869791666666 0.8336588541666666 0  0.8814453125 0.9451171875 0  0.5582987942628019 0.622421666543858 0  0.6817532446064828 0.6939001801354731 0  0.3830295138888889 0.9450968952922078 0  0.4140603937012541 0.05211333372716105 0  0.5535864501303013 0.3060591985391672 0  0.6560130086346878 0.2729726562211558 0  0.890203140221684 0.5948314305427268 0  0.7043857725999024 0.593980890020804 0  0.5105843922695152 0.8016828014338627 0  0.05365910753708378 0.7315110031682004 0  0.616904573672261 0.4621186633436136 0  0.5338511646455415 0.387875898899613 0  0.5231769258947843 0.4477682463140762 0  0.650302973237622 0.7370722302085519 0  0.3927483139621257 0.4662414504529014 0  0.8034595960585199 0.4972538342758211 0  0.7738337841682438 0.9496376207663251 0  0.7193737507158268 0.954685447650112 0  0.482525916480686 0.5528257169991676 0  0.2533501157346781 0.2809495420003238 0  0.3118487924482243 0.5702930126570319 0  0.6257598847669529 0.4104163315430518 0  0.1354166666666667 0.1955605158730158 0  0.04166666666666666 0.15625 0  0.3956448985530264 0.6174149462065157 0  0.8102897701818546 0.3938784238208349 0  0.2641154190013625 0.8344469561943118 0  0.642852220770013 0.5068794586563659 0  0.05271458179508221 0.355846947336007 0  0.7021551360070266 0.8921457280225779 0  0.5692125776683765 0.1328512638850284 0  0.5206162811937602 0.04865158770992991 0  0.6001838442201555 0.04540556991297563 0  0.2597716608242787 0.4118346398477178 0  0.4040584599473195 0.3179589136784675 0  0.1480337679295207 0.8941560631483065 0  0.1344356707112281 0.9466251177415842 0  0.7114696411829317 0.4983917389078826 0  0.7585704698442475 0.5751926345944629 0  0.2189131956390871 0.04022068508159698 0  0.2476935455192043 0.1123642267635843 0  0.185995005654517 0.1365524537205238 0  0.6223414373308711 0.643380839165121 0  0.5732602596637543 0.7190051747306219 0  0.268358222364537 0.6586246524467934 0  0.3265879848129173 0.2369791782191225 0  0.1267095595787346 0.7034787238999181 0  0.1115202922226038 0.6421997933884982 0  0.3128688392940203 0.07260997451790079 0  0.550724900485678 0.9253360991633187 0  0.7142608810459105 0.2384904702214873 0  0.7045869185243887 0.1871826897887429 0  0.890625 0.734375 0  0.953125 0.765625 0  0.2111812642821677 0.8286209446459138 0  0.9590293078204457 0.09375 0  0.953431269039847 0.1435719386408004 0  0.04097069217955424 0.90625 0  0.04656873096015299 0.8564280613591996 0  0.1078743037981226 0.8541621766048062 0  0.8921256962018773 0.1458378233951939 0  0.8521576979194619 0.1084496634207678 0  0.8655663982740958 0.05464346096571447 0  0.04005659640905543 0.09375 0  0.1001448316533417 0.04246776244228261 
[...]
<CellData  Scalars="f_739383"> 
<DataArray  type="Float64"  Name="f_739383"  format="ascii">5.6098686632534478e-05   2.5880947150798763e-05   4.8190722976633440e-05   1.4785200803730350e-05   9.0239572157298497e-05   2.4911296860452821e-05   2.0093472853673798e-03   3.5621551816739330e-02   1.1812923752096117e-05   3.9052018890515113e-05   1.8331624440030670e-05   8.2430201798266208e-04   5.3417943360684972e-03   5.4833013350105903e-04   3.5750182904225388e-04   1.1641519995022295e-04   5.4125402271017545e-04   1.1141882217638849e-04   4.9740192660820614e-04   4.5241487223479941e-05   2.7590516678042471e-05   1.2387136727924359e-04   1.7324287249016220e-04   4.9876472733995146e-04   1.3116958497999767e-04   2.2287145113515693e-03   2.4836126514110464e-05   2.8562725944393579e-05   4.2779791204874178e-02   2.8218654463204770e-05   4.9717983068355201e-05   1.9566660595170005e-04   8.3759436952458667e-05   6.0811389641266186e-03   2.9582396122063989e-05   5.1330707086348848e-05   2.1269560481287125e-04   1.3116783680103704e-03   2.0081536701264421e-05   1.0257511280913370e-04   6.9043619526083249e-05   3.3964886379499430e-05   2.3037369037519879e-04   3.1906032162029889e-04   9.3612509117056809e-06   2.1583587584841054e-03   1.4035202546645230e-04   1.0094918024564211e-05   1.0141799636669354e-02   3.1579885913846288e-03   1.3254243623129588e-02   3.1223022635371859e-02   1.9848585758306655e-04   7.0399267598560269e-05   1.2275316818468796e-04   9.7051741721261022e-04   2.8022881965472348e-04   1.9116275372169980e-05   2.8291870513513586e-05   5.3864799498686677e-03   4.2394178885288300e-03   5.1764757692258234e-05   6.0981739634337363e-05   4.2337438310878001e-04   5.8532585768757259e-04   7.5417005288807274e-05   5.8484890908374330e-04   3.3934120787484877e-05   3.0182415746536847e-02   5.5233607764017589e-02   2.2491074793297604e-02   5.5308234408149917e-04   5.9601201839977648e-05   2.0458362145743452e-04   1.8308844836117296e-04   1.2133556229611505e-03   2.3985046078045342e-03   2.5003957934999514e-04   5.2003292131250157e-04   7.5238265856547506e-04   5.4068913538281511e-04   2.1856413431024950e-04   2.0657295351623608e-04   5.6764596620887293e-02   4.2483911007818444e-05   4.2891439304073350e-05   6.8870107113740684e-05   7.3047908679282745e-05   9.4027595388502605e-05   9.2702637626811385e-05   3.0467363991205302e-05   5.6186783425998770e-05   4.1188737548923078e-05   9.7052215478917412e-06   2.8712257885185102e-05   2.1475054184427277e-05   2.9324839927408646e-05   9.8631238851815392e-02   1.5127902480755708e-02   6.6065039291304611e-05   2.5173537884861388e-05   2.6363850712222053e-05   5.9429159044149341e-05   2.6912971333712239e-04   5.6386802437257394e-05   1.1793675568056256e-04   9.5336305653063837e-05   3.1588582979691821e-05   1.9291901997897433e-05   4.5042373692142220e-03   4.4033507681162003e-03   2.4848411410515373e-05   1.9135459849104462e-05   1.1639805457832850e-05   8.2884737636252180e-06   9.8909322391340098e-04   4.8554349404529671e-04   5.4247834346905385e-05   9.3305443561329815e-04   1.0087006787573565e-03   4.9849473961975357e-03   4.0462632284982446e-02   1.4770163695792925e-04   2.5691082018229866e-04   2.5821737872486547e-04   3.7513816973462909e-04   1.8246955450015585e-04   3.7140351799712048e-04   3.0197502692710678e-02   1.3374027284879616e-04   2.0025328295402721e-04   9.5343870989459333e-05   3.5050650507055087e-03   2.5561163446357555e-03   4.1320045639887931e-03   1.7807588589677330e-02   2.2055025508911009e-04   1.6790147960056600e-04   1.6289149554557509e-05   3.3458515221307862e-05   4.3021476772552143e-05   3.0606943894449761e-05   3.7709736745740012e-05   2.3014688090820430e-05   1.2836416483777926e-04   7.1589860433632230e-05   1.0340730228043770e-03   3.8728305757657755e-04   3.5763641977002844e-03   2.9757069789966922e-02   4.1841660214333174e-04   4.2412456295654158e-04   3.5112002798959926e-04   4.1794369925599992e-05   1.0897533176188864e-04   1.4756731907102492e-04   8.7027229763722946e-05   2.5356216860397399e-05   6.7417852249386292e-05   1.5059750774485219e-04   2.8509057238158455e-05   9.4599814723755074e-05   1.7755054269082788e-04   1.6320502789620356e-04   1.2653609859481323e-04   1.3639137472054386e-03   9.6609517446839073e-04   1.6708828899582526e-04   1.0141801576325097e-04   8.0845143198664545e-05   1.1063134279914590e-04   6.1080607615787126e-03   2.9807634575570296e-01   1.9645860703031995e-01   7.3284494081007567e-02   2.3654173070274256e-04   1.7012224019005619e-04   4.7648039901285030e-05   3.1404139960312592e-05   3.3255042534405650e-02   6.3358519406841590e-02   4.0851140454443051e-05   7.5295497471191319e-05   5.5633204694739452e-02   1.2263426451951588e-01   2.1684494287185368e-02   2.8661566940300909e-02   1.1282070503857403e-05   2.6273496571567629e-05   5.0305065238343414e-05   2.7642067477835389e-04   3.2624699719557561e-04   2.8559043642100974e-04   1.8526855486016900e-04   2.3051172520323965e-05   2.0487585928406500e-05   1.8672985842809839e-05   2.4487052213379353e-05   5.2786336614544030e-04   1.9640436055184509e-04   2.7513139416147149e-04   3.2008628982256479e-04   1.7990170787017977e-05   6.7713624204510854e-05   1.2473081176466404e-04   1.2264470884854942e-04   8.5346771195794554e-05   1.2536114401164530e-04   3.6701884570439778e-05   5.4055329025844889e-05   4.6462300952127514e-05   2.2273256791098783e-05   1.6079436268444547e-05   3.9332902390146136e-05   5.3532241321081433e-05   1.4301485758074516e-03   4.0806711004724803e-03   5.5752549887919177e-04   4.4203843843569214e-02   1.9099631958106802e-01   1.6880904497650060e-03   1.8982692849580742e-03   2.2236779009998722e-05   4.4294868062413807e-05   1.1239792325277142e-04   5.7532608540845947e-05   1.5621920308258785e-05   3.4022509285900460e-05   8.4169444533567835e-03   2.0038956462662735e-02   3.7200335035786233e-05   4.5915803524951407e-05   4.4130784123756794e-04   1.5803365021770175e-04   5.0034438489511237e-05   6.3333406509224013e-05   3.6155020616569943e-05   2.8552557828052644e-05   3.6835604695117718e-05   1.6199102231750803e-04   1.0596170370052943e-04   1.9497089514465358e-02   2.6890224903705503e-03   5.0574098535523552e-04   8.8332256775695413e-05   8.7969138093748863e-05   3.1896905162235232e-05   1.1749773153952238e-02   6.2224881292458095e-02   6.9841002974269388e-05   1.9817385208470962e-04   1.2582741346332083e-04   5.8603093458131887e-05   1.2508043728834623e-04   1.8608980729911874e-04   3.7468826468208230e-05   2.2572309292535793e-05   1.8523769590157804e-05   1.9590116396803766e-05   5.6869514134396564e-04   6.5949952462578891e-04   9.6436914352882877e-06   1.6713716142198013e-05   1.2178842466217786e-05   4.1282740975038508e-03   6.9324552022298749e-03   4.3885184153975595e-05   4.3467065749099608e-05   1.5892182633515051e-05   2.4087321981784569e-05   6.1319010907845929e-05   2.1437284265952218e-04   1.8735210331917719e-04   1.6013268914507565e-04   8.8056440219670782e-04   1.4134765480675578e-03   2.5280211966098533e-04   5.6615362405985415e-04   6.5746324471849873e-02   1.2924291550297898e-01   1.3134118712710316e-04   6.0305542108261077e-02   2.3704976843836555e-02   7.7893967454178287e-02   7.7162252304888179e-04   3.1252167967920921e-02   6.5911196716243292e-02   5.1704333076238165e-05   2.4185501496772555e-05   9.5604429600943972e-05   2.0816187451824230e-05   1.9769976164620182e-05   5.0164070493397614e-05   3.2250067593119440e-05   2.0094944406324117e-05   1.3387106286311326e-05   3.8520542828368129e-05   4.7352082948386956e-04   4.3199128547599886e-04   1.1425618408154531e-03   1.6562933552697235e-03   9.2454536216756786e-03   2.0128098709165168e-03   1.6130941507493078e-02   9.2665753357069848e-04   3.0696752106954006e-04   5.3643793311235427e-04   2.0042680418553019e-02   2.5667736382524085e-02   4.2348267639687366e-04   4.1920366558866546e-03   1.3522865804079876e-03   6.2305286243886297e-04   2.6233279812337191e-04   5.9306981586960364e-04   1.2446648208418003e-03   2.2415486874419713e-03   5.5991600375345424e-02   1.0921448944369080e-02   2.2260804132002448e-05   6.9535615722554733e-05   2.6783300828117314e-05   2.0597053707107306e-04   2.0040405229306024e-04   1.4992207076545937e-02   7.4916495857347293e-03   2.1073676566187353e-04   1.5894616258279397e-04   1.6884054510046066e-04   3.1820782337067268e-04   1.8868500882803947e-03   7.6854953402074699e-04   2.0696655126688144e-05   7.4976373908413856e-05   2.1705378368333314e-05   2.2832767333511670e-05   2.7327172411891468e-04   1.3930948365073847e-04   1.7894946605719250e-05   2.0390855976630684e-05   5.6396579073978862e-03   8.0112123710789403e-03   8.8511507531287186e-05   5.0958448930605339e-05   5.6653390839992533e-05   4.9686423586442762e-05   1.0169067132181601e-02   3.2193449543821036e-02   8.9448328324600632e-02   5.7284262704340407e-05   9.0770237517487693e-05   8.4989226957378255e-04   6.5833029358443589e-04   3.1943658397684633e-03   3.5426914449539937e-02   3.9091073147469083e-04   2.6999989555205866e-04   1.8133868074865239e-05   1.5704996528758818e-05   3.4615022334844003e-05   5.0346786604849577e-05   1.2014557753443398e-04   6.3004097185712814e-05   1.0539966716759972e-02   1.0193958170036366e-02   1.0619459847129224e-01   2.4221922160278393e-04   3.7319910131450632e-04   7.2810478091174535e-04   3.2647485597031323e-04   1.4088547436748539e-01   7.2903492614036398e-05   5.1119826413147424e-05   5.9863165977064699e-05   6.0000091534760825e-05   3.9045657872037909e-04   4.6105231675042937e-04   1.5816572059497571e-04   1.8388751622838682e-04   1.9672309193471786e-03   5.0121320662596348e-03   1.0958054234118883e-03   5.9014642461846815e-04   5.8561117205684960e-05   1.1679708900122497e-04   5.1429395314549370e-05   4.3871598841995137e-05   1.7162079144365699e-04   1.4988147118521965e-04   6.8791488188996001e-04   3.0213545329018678e-04   1.7608838619195813e-04   2.1765685968794902e-04   3.1449852443171623e-04   9.6802148919274481e-05   3.0705678466801625e-02   2.4927140278907696e-02   7.2656703952331134e-02   2.2375180728756214e-04   1.2809301215638882e-04   6.3910172476267619e-05   4.2996650500867195e-05   3.3551413923251845e-04   3.2924335764184784e-04   5.4907361844701793e-05   9.1295519329935107e-05   1.2856822418459108e-05   2.5107154471863894e-05   2.2072048404474857e-05   1.4592836086096295e-05   3.0216041611582679e-04   2.4826427348332940e-04   1.0726523553680139e-04   6.2176773854923632e-05   5.7924089312554874e-03   3.0937028286855349e-03   1.1151291130177655e-04   1.3571332892505178e-04   5.6854135604047029e-05   9.7280328971262900e-05   2.0016881163643883e-03   5.4095652524847613e-03   4.8695282450752349e-05   5.0262357855661114e-05   3.8144852458340644e-05   1.7674468866234741e-05   4.3435641405412452e-05   1.4951970821986137e-04   4.7507482246382948e-05   4.5953784660868431e-05   6.4126368656149341e-03   3.6394765234858220e-03   5.9286576675408639e-02   3.7147087995076530e-02   1.5260423812476104e-04   1.2845899744890423e-04   2.7705623036743121e-04   2.3825015662131221e-04   1.9006475289298977e-05   1.8215944940709465e-05   2.6739110974086450e-05   1.7059465763485130e-05   1.4757798894413272e-05   1.4807597249571530e-05   2.1720290994959926e-04   2.5558732518769881e-04   8.1783722908704726e-04   1.0576644023819984e-03   7.5907381218048582e-04   3.2784605919269406e-04   7.5801246927912296e-05   5.8951846856069704e-05   5.8292725192588934e-04   7.0876050656307372e-04   4.3807557931035512e-04   5.6094555796554050e-04   2.2867462039308119e-05   1.8070406541810238e-05   6.9687875392797144e-03   1.8245610732328440e-02   5.1488679207749375e-05   5.2730235112612517e-05   4.7075971634227902e-05   2.4766485693028222e-05   5.6541215338255825e-03   8.6931144831537939e-04   2.3230286416185894e-02   5.2142730702911923e-03   1.5775814450689942e-03   7.2498029497717069e-04   1.5586457866322089e-05   1.7627677887081442e-05   2.1437406520694208e-05   4.4766992925705665e-03   3.6071301819026783e-03   2.6212840329891338e-03   2.0439464724368709e-03   1.9002346569109627e-03   3.6285469250297055e-05   2.1354340098427986e-05   1.1414357465418617e-05   1.1431125588115399e-05   1.6251111889927178e-05   1.6408487422186562e-05   1.8757364901773687e-05   2.3986277960237147e-05   2.4485684904541580e-05   2.3064041992060516e-05   1.1762240951350747e-02   1.3397512436920922e-02   5.1734514239800015e-02   8.6838964147966796e-03   1.2210701323887404e-05   3.1292818644580630e-05   2.9586866698281880e-05   2.0339032103632317e-05   5.5856401955833678e-05   2.8294243072570820e-05   2.1775365531533970e-05   3.1936955147153197e-05   2.0767216367462973e-03   1.3087637625950710e-03   1.0050877818902064e-04   1.1863437081478943e-04   1.6574654357411186e-04   1.0705739666433362e-04   2.4559799627761822e-05   1.4437975837011642e-05   2.2454170486537528e-05   2.8901646539567564e-05   7.9127105980952902e-03   7.6788879868409479e-05   4.4115600954747147e-05   1.3714090739635715e-02   1.5960185826638842e-02   5.6797644577139461e-04   8.8766465196191363e-04   4.3034895366211851e-04   5.7323636160514641e-04   7.6677672159167136e-05   4.4550914713134527e-05   6.2887763009616829e-04   8.5739400954492142e-04   3.7630200478410718e-05   2.8656555677047485e-05   1.4630800069903951e-04   9.8716522070535750e-05   1.3048966131846133e-05   1.2086445265512386e-05   1.1221547448300862e-04   6.1419660954178530e-05   1.9572388213476256e-04   2.2150914825442829e-04   2.4818135301125368e-04   2.0001962628105733e-04   1.7099753986448052e-05   4.4953886078864871e-05   4.3233545665639691e-05   1.4196998462741999e-05   9.2149727371469481e-05   9.4275087047333318e-05   7.2274343124101954e-03   2.6491187784850761e-03   5.6580932202645809e-05   1.3323999150767059e-04   2.9347321198839617e-04   1.2293282150445693e-04   7.7850414641122105e-05   3.0294180776710009e-05   2.8841568065180240e-05   2.3513440322896248e-05   1.4215430567744074e-04   1.7546761013232683e-04   8.8671636206630908e-04   1.5070424543749384e-03   2.2887484740864998e-03   4.5102338627358730e-03   4.4512882413906855e-04   4.3381348324164469e-04   3.1049785529616648e-05   2.2105832867496073e-05   5.2899363831487346e-04   6.8535858922130809e-04   3.5378169190954730e-03   1.7644552556650716e-03   1.5529869172817204e-01   4.3829176941356340e-04   1.4262058974468105e-04   6.8881448356476055e-04   2.3653429920850156e-04   2.7214943880848907e-03   2.0262981993908057e-04   3.2009809890659998e-04   6.4785986917999727e-05   7.1953699026058412e-05   3.5854831349504970e-05   2.1074792811538016e-05   3.7521687992286658e-05   5.2757771318301611e-05   1.6931240976226993e-03   1.9718663933967094e-03   2.5249716915336211e-05   1.5181403849410650e-05   6.8825625165666734e-04   1.7405873906841578e-03   1.1009351231370766e-03   1.9385685928639564e-03   1.2775752709260423e-04   1.3612814223995683e-04   1.3057555626188022e-01   1.5896391357964815e-01   2.0535079847027046e-04   1.9710686640932182e-04   3.1322585441196426e-05   2.2828246888271914e-05   2.2222204895449628e-05   4.2227084059604371e-05   5.1236015940004479e-05   7.5622371959419214e-05   3.4911508261369209e-04   3.6369007051218399e-04   9.4508815111236336e-04   3.2470491188376477e-04   1.5150318431801575e-04   8.1130019849722290e-02   2.2876124003841375e-04   2.1944201044986095e-04   1.0379036016056080e-03   3.4834757479519835e-04   2.3151605442865472e-05   2.6522184672504764e-05   3.4742860489964533e-01   1.2494336818605371e-01   1.8010398068796128e-03   4.9114191078597916e-03   1.3274130409455094e-04   1.7800012675221397e-04   2.2839981931640580e-04   1.5646528783312815e-04   2.7214346778351783e-02   1.1770524035792502e-02   2.2093528963419682e-04   2.4893184449130168e-04   9.1813499824179898e-05   5.1776579907855677e-05   1.7237783138430408e-05   1.7310341944786233e-05   9.9471128368970425e-05   7.8615743694225159e-05   2.3014327965858883e-01   4.9952853677830180e-05   7.0791548351500377e-05   4.2970280443158547e-05   7.1878472053602132e-05   5.1578524064165951e-05   6.0719357015406231e-05   5.7044418609019333e-05   7.3244172545787844e-05   5.8417346235365390e-05   4.0766478516393579e-05   2.3387631664931340e-04   1.1807096378807271e-04   1.9733524218893626e-04   2.1842324279631496e-04   1.9092094058649863e-04   1.6704898655451862e-04   1.0740208076534863e-04   5.0470801068413341e-05   3.4792838200665526e-04   1.9084872586495357e-04   2.3628720025010959e-05   2.5302261816286661e-05   5.2087642030499916e-05   3.2952565781082567e-05   6.4450359297045303e-05   5.3827105132945716e-05   6.6367748756160410e-05   4.2773337513951044e-05   2.9217527119767543e-02   6.8616734422973960e-02   7.8907903568064047e-05   1.1266401878312118e-04   8.4409893354452789e-05   6.4847314854856553e-05   1.9646334240233888e-03   4.0533400952816913e-03   2.2866223364473672e-04   9.0156453561904393e-05   3.5121812409310781e-03   8.4542140335332671e-04   1.7183075375425382e-05   2.0277815773038316e-05   7.6340377331664982e-05   1.0876172572709357e-04   1.5019138013163511e-04   8.2364521501238121e-05   8.4401287755118447e-05   2.1067047239908151e-04   1.2984579911327402e-04   1.4161672340269217e-04   2.1288431443671510e-04   1.8246367003382091e-01   2.5990202023852516e-04   3.4789311855395533e-04   4.0776615649455817e-05   4.3167951040980426e-05   1.9783933198272350e-05   3.6924403122993402e-05   3.7662932582951692e-04   5.3808733927652563e-04   5.2477655809604650e-04   4.2419829183070720e-04   2.6929851341100382e-05   3.4355338362544349e-05   3.7752528281834556e-03   1.3791383064896919e-03   4.1175411296372548e-05   4.6015936617646707e-05   1.5670788831229849e-04   1.0408362215725346e-04   1.4366899437926657e-04   9.8739052208107687e-05   3.1037461573338376e-01   1.3952092865731461e-01   5.0461359288507105e-05   6.2279673227369852e-05   1.8073228601016522e-04   2.3416540166416584e-04   1.3940044448102810e-04   1.1799656112156829e-04   1.0278965759955962e-03   1.2780985474614101e-03   3.8784042395525458e-05   6.1914790074040605e-05   5.8524443634164063e-05   3.3583489904497605e-05   4.9573432090499578e-04   7.1446539604669648e-04   1.1607732996570846e-02   4.0791622419348424e-02   1.6655316963424814e-04   1.0166369535489734e-04   2.4211847597750357e-04   1.2538935135057968e-04   1.5802612098849210e-03   5.4956383022914702e-04   3.4559794812106295e-04   8.8387631624348422e-04   2.6450081786751344e-04   1.5238035664060905e-04   7.0689483957020512e-03   3.3671820226446152e-03   6.7823700811281645e-04   6.1109821412311987e-04   4.1432110614044074e-05   1.8111408077108221e-05   3.5610183048145875e-05   2.4317707522874433e-05   1.1774625612037494e-04   1.9215328122525657e-04   1.5689159322553697e-02   5.8109501841869700e-02   5.9521958735817213e-02   3.7233140644614032e-01   3.0308463900116514e-05   4.1585301025528447e-05   5.4708739154270616e-03   1.4019867662224336e-03   3.0573553414208950e-05   3.5369966431443064e-05   1.3756028662017755e-05   1.3693648247789822e-05   2.6559199397154906e-05   3.1591588515782463e-05   1.8863812671526779e-05   1.5565243950432928e-05   5.1735374101764169e-04   2.1910182911117813e-03   7.2781364182502263e-05   7.3552846635309240e-05   1.8636613057229320e-05   9.9842538688032306e-06   4.7114203885548600e-02   1.1541808387230670e-01   8.2415427957433030e-05   5.8591145768426947e-05   3.5946471338878060e-04   2.7019447754793324e-04   6.2369968398553064e-05   4.4038429282137318e-05   3.1621512985927663e-05   2.4216576343066381e-05   2.4359992312639229e-05   1.8582924429420571e-05   2.5791360490390943e-04   3.4397247733226709e-04   1.8008642481075852e-04   7.2563666656743673e-05   1.6055292065101170e-02   7.6037439423395949e-03   1.6400787842794820e-05   8.5715325220063477e-06   9.4947308918416906e-03   1.0183885968336784e-02   5.9999419969968415e-05   6.9111865803032644e-05   5.9308859841264515e-02   1.8487485775578252e-01   7.4506914541162670e-05   5.4983316040721810e-05   1.8517875897287894e-04   2.4404919175763232e-04   7.6760204000249436e-05   2.4342453410649292e-05   3.2817094947720308e-05   9.5636831109155771e-05   2.230907