<?xml version="1.0"?>
<VTKFile type="UnstructuredGrid"  version="0.1"  >
<UnstructuredGrid>
<Piece  NumberOfPoints="4984" NumberOfCells="9710">
<Points>
<DataArray  type="Float64"  NumberOfComponents="3"  format="ascii">0 1 0  0 0 0  1 0 0  1 1 0  0.5 0 0  1 0.5 0  0.5 1 0  0 0.5 0  0.5 0.5 0  0 0.25 0  0.25 0 0  0.25 1 0  0 0.75 0  1 0.25 0  0.75 0 0  1 0.75 0  0.75 1 0  0.7083333333333333 0.2916666666666667 0  0.2916666666666666 0.7083333333333334 0  0.375 0.25 0  0.75 0.625 0  0.2569444444444444 0.4652777777777778 0  0.5366379310344828 0.7535919540229885 0  0.1875 0.1875 0  0.8125 0.8125 0  0.869047619047619 0.375 0  0.1450441919191919 0.6052714646464646 0  0.375 0.8690476190476191 0  0.5526960784313725 0.1825980392156862 0  0.8385416666666666 0.1614583333333334 0  0.1614583333333333 0.8385416666666667 0  0.6736111111111112 0.4652777777777778 0  0.1367521367521368 0.3477564102564102 0  0.6570970491253563 0.8648656830417855 0  0.5102479397556124 0.3386260301221938 0  0.3654513888888889 0.5737847222222222 0  0.6929750044954185 0.1362784921584263 0  0.388576102743835 0.411911725237599 0  0.6091269841269842 0.5942460317460317 0  0.875 0.6875 0  0.427278890279516 0.119889445139758 0  0.8544456845238095 0.5213913690476191 0  0.125 0 0  0 0.125 0  1 0.875 0  0.875 1 0  0.1280008648150532 0.4769292340226777 0  0.2695382451711197 0.3321750950221553 0  0.7031567235715964 0.7447810921428012 0  0.625 0 0  0.375 0 0  0.125 1 0  0.875 0 0  0 0.375 0  0 0.625 0  1 0.375 0  0.375 1 0  1 0.125 0  0 0.875 0  0.625 1 0  1 0.625 0  0.2979288363930608 0.1201429454643536 0  0.410919540229885 0.7484605911330049 0  0.5325041980395562 0.878905151526474 0  0.4831670727569156 0.6331060043826487 0  0.1735997378973042 0.7204747378973043 0  0.2534919507575758 0.5772372159090909 0  0.2633928571428572 0.8876488095238095 0  0.8199404761904761 0.2730654761904762 0  0.75830270586982 0.3919383189517417 0  0.5750282248382511 0.4237522353023667 0  0.6008360210023379 0.2794828358598495 0  0.08163442644334186 0.6821295860397322 0  0.08333333333333333 0.1875 0  0.2028380815996574 0.08844602719988583 0  0.2766521142611967 0.2325436572164097 0  0.90625 0.78125 0  0.890625 0.890625 0  0.7545696325008384 0.8973565441669461 0  0.5625 0.08086590340834317 0  0.09077380952380953 0.09077380952380952 0  0.4610923478694773 0.209034015149656 0  0.7542527598351648 0.5248380520595106 0  0.6459235536037465 0.3619913988405765 0  0.7560381768882634 0.20506142233852 0  0.07073252688172042 0.8125 0  0.0924753097241701 0.9078102849914793 0  0.9292674731182795 0.1875 0  0.9075246902758297 0.09218971500852073 0  0.8125 0.07073252688172045 0  0.2400955776842301 0.7869705776842302 0  0.9121050213379069 0.2781978201831695 0  0.7916878157143976 0.7239689078571988 0  0.9345238095238094 0.4375 0  0.4375 0.9345238095238095 0  0.3725616989755203 0.6651895248862173 0  0.06536271996350887 0.5625 0  0.9348362560379583 0.5625 0  0.456646798987055 0.8277247094351965 0  0.1875 0.9355758238725954 0  0.6169761231634859 0.6939779188977889 0  0.6226854751147515 0.7827911461419014 0  0.3305695598137626 0.7901697871282585 0  0.5865305325818898 0.5101085479043448 0  0.6622701297028378 0.2177663989757395 0  0.1354166666666667 0.2591702279202279 0  0 0.3125 0  0.2094429575680048 0.3936361846162499 0  0.836666296419157 0.607917407161686 0  0.6875 1 0  0.214261555450504 0.6492551722020035 0  0 0.4375 0  0.07731537126068377 0.40625 0  0.3427725432967068 0.4879566233699599 0  0.3550792513951871 0.3331953632609953 0  0.4462473953896857 0.2887834789342508 0  0.4747801464819794 0.417386052030127 0  0.8229836475148948 0.4443292349237342 0  0.7322605135514757 0.8199240278289671 0  0.6756431877205955 0.5468989748126787 0  0.1968419507215863 0.5194573482612496 0  0.3285590277777778 0.9345238095238095 0  0.8125 1 0  0.4198917601920009 0.5134893045331258 0  0.5232405503206691 0.2595791787880157 0  1 0.9375 0  0.1987510870015086 0.3025185951894431 0  0.5625 1 0  0.6005390654136388 0.9228110509230952 0  0.6411254848194414 0.07704872765442942 0  0.3357233162523242 0.1855113224530532 0  0.6730653396610877 0.6393887462324165 0  0.310966987234063 0.6240019765311626 0  0.7368737836204349 0.07457755202327881 0  0.6192316414418171 0.1485238406378594 0  0.5432429670607106 0.678552703844006 0  0.4754371679695679 0.7103946803120881 0  0.07501324890749672 0.3043839897335739 0  0.5358146975860403 0.5688321463205916 0  0.3115271739500156 0.3982137365971444 0  0.3625191397122174 0.0767854603650549 0  0.5024029442563831 0.1264128223758444 0  0.4375 0 0  0.4699946908887376 0.06379961173775725 0  0.9375 0.71875 0  0.9272105898044465 0.635671179608893 0  0.9375 1 0  0.6690971819568612 0.9331530898202766 0  0.1073454944778885 0.7499206387638554 0  0.8699082999280406 0.2232403652524313 0  0.5773118091863964 0.3548027349159383 0  0.1354166666666667 0.1428571428571428 0  0.3125 0 0  0.8241684193077341 0.9257452995055244 0  0.4352314948354036 0.3586940847489378 0  0.4351301473778832 0.5819726043539077 0  0.8073232928518163 0.3419398170341962 0  0.7775949246947366 0.1298519409204575 0  0.6875 0 0  0.7413513991851041 0.457933324954483 0  0.939453125 0.841796875 0  0.5630355154606987 0.8171875156478349 0  0.9345238095238095 0.3461466592368577 0  0.9375 0 0  1 0.0625 0  0.0625 1 0  0 0.9375 0  0.06552178593177167 0.4969053669623468 0  0.1424866619031703 0.4130277709291224 0  0.1275287182444726 0.5422946908002588 0  0.2637686595586339 0.06413888464529549 0  0.2524263535491086 0.1697437503243817 0  0.7367218397988525 0.6888573970660841 0  0.0625 0 0  0 0.0625 0  0.8463594539285995 0.7578283617857982 0  0.3128751192101563 0.2851997374369947 0  0.4015281788351144 0.1806421385113692 0  0.1910251795116588 0.4553332197174453 0  0.287797471442006 0.5222621440543902 0  0.3962628745986055 0.8097380085535307 0  0.3505895299554843 0.7304878890838692 0  0.5019151500495276 0.9356042615328103 0  0.9374389419410134 0.4999931039076005 0  0.3125 1 0  0.1875 1 0  1 0.5625 0  0.4375 1 0  1 0.3125 0  1 0.4375 0  0.8125 0 0  1 0.1875 0  0.5625 0 0  0.1875 0 0  0 0.1875 0  0 0.5625 0  0 0.6875 0  0 0.8125 0  1 0.6875 0  1 0.8125 0  0.8021696218581627 0.6612893947866073 0  0.06154922295426143 0.6239401126946708 0  0.9359375 0.9359375 0  0.4666158024849896 0.7691515918155014 0  0.2318201265217025 0.7064974250277525 0  0.1565954253579966 0.6635489312486841 0  0.1598132503680848 0.7787147500325552 0  0.3146529991605639 0.8510876378205265 0  0.1461873209418733 0.05982804528877814 0  0.06109554988524315 0.2446551776247686 0  0.8054950308560754 0.5564226538848541 0  0.470541749491976 0.8853316336952531 0  0.6948472567465137 0.4042308563372457 0  0.8802828472348889 0.4658893256343853 0  0.6788075634946739 0.7974194205806069 0  0.2155048659603867 0.2428201584940968 0  0.8131223143423806 0.2132171049028394 0  0.4330798005432235 0.6671274900735726 0  0.6015279126162613 0.2187368078743274 0  0.8061636571464289 0.8703766630361714 0  0.7008230445061776 0.3478568388444072 0  0.8638466246958771 0.3147095987735538 0  0.204801534004265 0.8789209409594009 0  0.2449006736431132 0.9424182882803838 0  0.7611268409371427 0.2643056884799992 0  0.7552800864046191 0.7678006649959446 0  0.5983639638906616 0.864113435029236 0  0.1956559506814437 0.577281203577426 0  0.3527670268164207 0.1320469097565204 0  0.7530364577483248 0.3262386077083089 0  0.4535919187979363 0.4690107087451527 0  0.8824869791666666 0.8336588541666666 0  0.8814453125 0.9451171875 0  0.5582987942628019 0.622421666543858 0  0.6817532446064828 0.6939001801354731 0  0.3830295138888889 0.9450968952922078 0  0.4140603937012541 0.05211333372716105 0  0.5535864501303013 0.3060591985391672 0  0.6560130086346878 0.2729726562211558 0  0.890203140221684 0.5948314305427268 0  0.7043857725999024 0.593980890020804 0  0.5105843922695152 0.8016828014338627 0  0.05365910753708378 0.7315110031682004 0  0.616904573672261 0.4621186633436136 0  0.5338511646455415 0.387875898899613 0  0.5231769258947843 0.4477682463140762 0  0.650302973237622 0.7370722302085519 0  0.3927483139621257 0.4662414504529014 0  0.8034595960585199 0.4972538342758211 0  0.7738337841682438 0.9496376207663251 0  0.7193737507158268 0.954685447650112 0  0.482525916480686 0.5528257169991676 0  0.2533501157346781 0.2809495420003238 0  0.3118487924482243 0.5702930126570319 0  0.6257598847669529 0.4104163315430518 0  0.1354166666666667 0.1955605158730158 0  0.04166666666666666 0.15625 0  0.3956448985530264 0.6174149462065157 0  0.8102897701818546 0.3938784238208349 0  0.2641154190013625 0.8344469561943118 0  0.642852220770013 0.5068794586563659 0  0.05271458179508221 0.355846947336007 0  0.7021551360070266 0.8921457280225779 0  0.5692125776683765 0.1328512638850284 0  0.5206162811937602 0.04865158770992991 0  0.6001838442201555 0.04540556991297563 0  0.2597716608242787 0.4118346398477178 0  0.4040584599473195 0.3179589136784675 0  0.1480337679295207 0.8941560631483065 0  0.1344356707112281 0.9466251177415842 0  0.7114696411829317 0.4983917389078826 0  0.7585704698442475 0.5751926345944629 0  0.2189131956390871 0.04022068508159698 0  0.2476935455192043 0.1123642267635843 0  0.185995005654517 0.1365524537205238 0  0.6223414373308711 0.643380839165121 0  0.5732602596637543 0.7190051747306219 0  0.268358222364537 0.6586246524467934 0  0.3265879848129173 0.2369791782191225 0  0.1267095595787346 0.7034787238999181 0  0.1115202922226038 0.6421997933884982 0  0.3128688392940203 0.07260997451790079 0  0.550724900485678 0.9253360991633187 0  0.7142608810459105 0.2384904702214873 0  0.7045869185243887 0.1871826897887429 0  0.890625 0.734375 0  0.953125 0.765625 0  0.2111812642821677 0.8286209446459138 0  0.9590293078204457 0.09375 0  0.953431269039847 0.1435719386408004 0  0.04097069217955424 0.90625 0  0.04656873096015299 0.8564280613591996 0  0.1078743037981226 0.8541621766048062 0  0.8921256962018773 0.1458378233951939 0  0.8521576979194619 0.1084496634207678 0  0.8655663982740958 0.05464346096571447 0  0.04005659640905543 0.09375 0  0.1001448316533417 0.04246776244228261 
[...]
<PointData  Scalars="f_1762347"> 
<DataArray  type="Float64"  Name="f_1762347"  format="ascii">1.2549352314021123e+00  1.0002004822388102e+00  9.9978206240945178e-01  5.1769681011765400e+01  1.0000688781542781e+00  1.5625968399484622e+00  1.3781713391723320e+00  1.2845786092370874e+00  1.1809837291332377e+00  1.0119001148135602e+00  1.0001930511476311e+00  5.8741004661629903e-01  2.6801611395419487e+00  1.0164287337798716e+00  9.9986652958986788e-01  1.1049076728218116e+01  2.5417753933337359e+01  8.4048500788629532e-01  1.4278004795608190e+00  1.1488933634910137e+00  1.0076171386210231e+00  1.3614979087542312e+00  1.1202067565555578e+00  1.1478456707158018e+00  9.5225328961828168e+00  8.1816478258907066e-01  1.3855419785421850e+00  1.0992945797345792e+00  9.7453252680931046e-01  8.8818747120485886e-01  1.1262584317563924e+00  9.0538484333520919e-01  1.2329186864280786e+00  8.0048211102411160e-01  1.0486452992047377e+00  1.4022748876595097e+00  9.0556184157949227e-01  1.2427924519132290e+00  1.0685968586283807e+00  3.4653771369039470e+00  1.0572541243179285e+00  7.8635694121737565e-01  1.0001284713314962e+00  1.0002098643062631e+00  2.9556820682779502e+01  6.0430836907544894e+01  1.3150578521464382e+00  1.2609737865882074e+00  1.0388946029173571e+00  9.9992788771071928e-01  1.0001643069369457e+00  4.9314897667978286e-01  9.9987130441873384e-01  1.0788969023383066e+00  1.7816167101352907e+00  1.1248828004231537e+00  8.1436289410084484e-01  1.0001157088599055e+00  3.9329353299066447e+00  2.2514470085817262e+00  3.4379946910839565e+00  1.1074491007825105e+00  1.4142278573360700e+00  8.8633421708614246e-01  1.3210470848348503e+00  1.3471870746931469e+00  1.4238869370941787e+00  1.0440179498736941e+00  8.2533114901269278e-01  7.8677521627711822e-01  1.0099070865692199e+00  9.3060204946140002e-01  1.4563680764822744e+00  1.0847180510003214e+00  1.0793131994678176e+00  1.1881291131500336e+00  1.5505572607271505e+01  4.2142318605472347e+01  1.1043129454642560e+01  9.8157415396340575e-01  1.0390469069755883e+00  1.0575465469761702e+00  8.6757734010052423e-01  8.9121889749483685e-01  8.5756294836092672e-01  1.5525571959521494e+00  1.0669381390245969e+00  9.2872297433082929e-01  9.5539549254208511e-01  9.3713170873680873e-01  1.2692705962744786e+00  8.8744110427522616e-01  2.3065133989069420e+00  9.9592979197404674e-01  1.5392682834178291e+00  1.4552187105614705e+00  1.3562413456974514e+00  1.4344314247102226e+00  1.1258683071154374e+00  1.2410433378699599e+00  9.3880379058316477e-01  7.9188272008531468e-01  1.3515912516024888e+00  1.0677070810904126e+00  8.8930545192365229e-01  1.1704911489456971e+00  1.0343669583299167e+00  1.3056611486921887e+00  1.1948627697307379e+00  8.8972751919717208e+00  1.4104585608246478e+00  1.1564025281452783e+00  1.2136167498343962e+00  1.3461757532581282e+00  1.2158062457764895e+00  1.1006476955495670e+00  1.1446786313262522e+00  7.6253386386275257e-01  2.3221012634986793e+00  9.7292610027760507e-01  1.3816512151836617e+00  1.5779861488422662e+00  4.4222172289879303e+01  1.2995632800412367e+00  1.0076957540394129e+00  4.3519068710245264e+01  1.2353744890557554e+00  1.5523090841935696e+00  9.5758924773495568e-01  9.5135323944782746e-01  1.1376982877532258e+00  9.6838274232328803e-01  1.4470706437769767e+00  9.3171492190226690e-01  9.3412943172534313e-01  1.1764180702554285e+00  1.3415969052493415e+00  1.1408537611610845e+00  1.1909872324446213e+00  1.2938604412622856e+00  1.0627013487088484e+00  1.0119701188198458e+00  1.0002178919623059e+00  1.0208806982339549e+00  6.6703471960023837e+00  2.2710497508611254e+00  6.2654068512833916e+01  2.1120661300751795e+00  1.3931510657693216e+00  8.7060362103969746e-01  9.7206424963129434e-01  1.0929634590871831e+00  1.0001616172015082e+00  3.5050370705721342e+01  1.1519012356380149e+00  1.3481164534446779e+00  7.9170718260018524e-01  8.9603375334016699e-01  9.9982616136319380e-01  8.1029944882602645e-01  2.9548048018084312e+01  8.4887238939798559e-01  9.2325932759588369e-01  1.0000636323099359e+00  1.0001776548630168e+00  5.8286135703490694e-01  3.7256827087643010e+00  1.2831538438481436e+00  1.2834557366624495e+00  1.3543491344448271e+00  1.0654608952226461e+00  1.1466599311181866e+00  1.1320668585163942e+00  9.9966066528545194e-01  9.9990751839209735e-01  6.9082582008544113e+00  1.2112222294592092e+00  1.0962408957459560e+00  1.3416951476975745e+00  1.3963849865265183e+00  1.3010764916016175e+00  1.4454787485018661e+00  1.3492549358662453e+00  1.1505238892403788e+00  7.1107966564206715e-01  4.8890245755590733e-01  2.1666487428842962e+00  1.0155708464835489e+00  1.0506618994627424e+00  1.2766447171700130e+00  9.9957480207450566e-01  1.0030778954436741e+00  9.9995831945800395e-01  1.0001394790273448e+00  1.0024931890508513e+00  1.4895147099362409e+00  2.1815620957081876e+00  3.2641828435328346e+00  6.8709595370179022e+00  1.7472529452362448e+01  1.4539942373361894e+00  1.4423603466678310e+00  5.8019275567768737e+01  1.2930315054669426e+00  1.3852995911968904e+00  1.3849832359127132e+00  1.2681131237234242e+00  1.1725030025418917e+00  1.0428101992341214e+00  1.0916786299830643e+00  8.9748755252423262e-01  9.7242946151669807e-01  8.4373286995571928e-01  8.4922029531189525e-01  8.8327745344417574e-01  1.1958692600537240e+00  8.5400824581739976e-01  1.4127676688485566e+00  9.3230630426484684e-01  1.9375296583099495e+01  8.3532808144139203e-01  8.2923956222571860e-01  1.0103147859543145e+00  1.5779148876146194e+00  8.2894230564609206e-01  2.1981473720129934e+00  7.5510620210133472e-01  1.4029287501882777e+00  1.0995749191244675e+00  8.0654146218569300e-01  1.2161471534879567e+00  2.5234095611078001e+01  5.5027248580528003e+01  1.1620177335633355e+00  9.1030644175405662e-01  1.8090902030770990e+00  1.0339345744914430e+00  9.8503645474050527e-01  8.8160816314543555e-01  1.2191889666263005e+00  9.7067168244424185e-01  1.0749815066349397e+00  1.6461311725490926e+00  9.8101223081374456e-01  1.0441286397492313e+00  1.1018788015817391e+00  8.2162504164650130e-01  1.2842244414871815e+00  7.6897958427317159e-01  2.4191882295269355e+01  1.1547706912833824e+01  1.2595307080302531e+00  1.2259214981368936e+00  1.4220646944014508e+00  9.3351829070615433e-01  1.1276677790341521e+00  1.0365271547302448e+00  1.4174331896372954e+00  7.7346543315565208e-01  1.1786211046958051e+00  9.8695616046119661e-01  1.1441152564030748e+00  3.0642709121781677e+00  9.6811348711402845e-01  1.0015907449459418e+00  9.7876188079387660e-01  1.3221709959324113e+00  1.1605350324903669e+00  9.7801503133957413e-01  1.1822153243050708e+00  8.8819922184895761e-01  9.2665835605692337e-01  1.0410692329549187e+00  1.1042472416671307e+00  1.1106179724041274e+00  1.0117434235965026e+00  1.0410309141637735e+00  1.4359912783577522e+00  1.1729942503149786e+00  1.3817597540905453e+00  1.3949005243789556e+00  1.0696354864844728e+00  1.2437468496135005e+00  8.5509916988649282e-01  8.7932087430864181e-01  7.3550389700060554e+00  1.2139185038419050e+01  1.1485330356264603e+00  9.8100438920725741e-01  9.6216337005367913e-01  1.9854840470312620e+00  1.8571750210890505e+00  1.2062992098986742e+00  9.2026083097854050e-01  9.2282507686897430e-01  9.6041216204741087e-01  1.0162050329699057e+00  1.0188865103349847e+00  9.8630003845296543e-01  1.0189553142947065e+00  1.0364648650143642e+00  1.0046699918633237e+00  9.3167192752360095e-01  1.0163338912721434e+00  1.0578518751674244e+00  1.1030669815708016e+00  1.3162874101098452e+00  1.0089966833663795e+00  1.3370306048323901e+00  1.0620127502815184e+00  9.3649369993219800e-01  9.5559278920893354e-01  1.9100903126565489e+00  9.4718700019680002e-01  4.3081098864331572e+01  1.2998357474594469e+00  1.3637171910845827e+00  9.1982190501751027e-01  1.8526638642812820e+00  9.0477116779695277e-01  1.0512831506482831e+00  8.8640448322765319e-01  1.2656293120455333e+00  1.4527423938527169e+00  1.4568741946634773e+00  8.4903852095929511e-01  1.0337198901807561e+00  8.5351408001107043e-01  9.2987724477265499e-01  1.2607956071829407e+00  1.0006007506643981e+00  1.0730204812453290e+00  9.5673809314857505e-01  1.3900728655196826e+00  2.6839377098775379e+00  4.3753956975399362e+00  9.3891948364564681e-01  8.7353357239773954e-01  1.4021603292289928e+00  1.2578174899028416e+00  1.5570507803152289e+00  1.3685286575838103e+00  1.3281520529711119e+00  2.2297397277334174e+00  1.0166555512316997e+00  1.2936018066594805e+00  9.7309932688625322e-01  8.7000342848425738e-01  6.7047992142184745e+00  9.6574890936150748e-01  4.1275248087313718e+00  7.0852097208351483e-01  1.0609141806041891e+00  1.9774033469213008e+00  1.3856723502723920e+00  1.1675611291167531e+00  1.1243919218796365e+00  1.1894584804288670e+00  1.6391079664466517e+00  1.2273857793669840e+00  1.5538733360021892e+00  1.2123700907201658e+00  1.9723392070646784e+00  1.3585152705409498e+00  5.4581145044279559e+01  9.2817892333697927e-01  1.0223120740603906e+00  9.7100497927735174e-01  5.1208010066771656e+01  1.1737655064110897e+00  1.1451385528132070e+00  1.4556799410605379e+00  2.7241799390411451e+01  1.0857964610427373e+00  1.2223184329010304e+00  1.0760836794449888e+00  1.1066003686263344e+00  1.7183743270493832e+00  1.2922845699554932e+00  1.2410531485150200e+00  1.1864394588900800e+00  1.2071194420333584e+00  8.0764657188864675e-01  9.3001552797723319e-01  1.4156406101931542e+00  1.3826171704962140e+00  8.8663595950514651e-01  1.4372094403681108e+00  1.1566014560333897e+00  1.0211086854330529e+00  1.0544338004110807e+00  1.0431568352125007e+00  1.0926918862454296e+00  1.2060978075439708e+00  1.2559848543343832e+00  1.4832357291069670e+01  1.1197906246734881e+00  3.6811256184721723e+00  1.0528394155644651e+00  1.1521487848235588e+00  7.6927537777037314e-01  7.8937129214276047e-01  1.2459862174242020e+00  7.7114319095152117e-01  1.1902908890226209e+00  1.4301040410108530e+00  1.2651618837106287e+00  1.0001978069454041e+00  1.3830193388366590e+00  1.4020483228860050e+00  1.1752181789103469e+00  1.1357485278071335e+00  1.2018326751547741e+00  1.3398614949484284e+00  1.3407049267079956e+00  5.5332849450813482e-01  1.1410899560678294e+00  1.2447102766459746e+00  1.3542479011286330e+00  1.3289932322322191e+00  1.0960487429210726e+00  1.1353985197454546e+00  1.5699053780991332e+00  7.9717546248173576e-01  1.3506967725214305e+00  1.4052569726026538e+00  1.3442166378591363e+00  8.9313448534310280e-01  9.6955293892626504e-01  4.6273010428472183e+00  1.3759356174746982e+00  1.0002817531865995e+00  8.9202220076822591e-01  1.3083237451070791e+00  1.2551505949516046e+00  1.8851407713455230e+00  1.0000003859549356e+00  1.2880095283482693e+00  9.9122330306682482e-01  1.0391729899530580e+00  8.9283303054335528e-01  9.2775873269120945e-01  1.6457809892810447e+00  1.1902168143294303e+00  9.0885142013591980e-01  6.4494945739685306e+01  1.2826970261074353e+00  9.3226038201825079e-01  9.6770597942059755e-01  1.0728899058241028e+00  1.0001148140310698e+00  1.3526427196631152e+00  1.2084659232978112e+00  8.7415214155677956e-01  9.1113262341214341e-01  1.9523697477765488e+01  8.5454192233542681e-01  9.0648863500796906e-01  1.2141632802182878e+00  1.2999966897006616e+00  1.1015109519234731e+00  9.0487096294294678e-01  1.3191007978573597e+00  1.3792051500025082e+00  1.2173881282664745e+00  1.2842599391745821e+00  9.9976568812310485e-01  9.6574387878366086e-01  9.2064546664877800e-01  9.2607207780932532e-01  1.1425946450554281e+00  1.1229163939027946e+00  1.0313073358327951e+00  9.9318520565491419e-01  1.2256963035665436e+00  1.2500218493495883e+00  1.2481513793933201e+00  1.0490839134793501e+00  4.9431147001658104e-01  4.2801941319638026e+01  2.1287084062033664e+01  1.0153566979216841e+00  1.3671743164943748e+00  4.9449442357319091e+00  9.5116421687969999e-01  1.0401797701318021e+00  1.3695711839777878e+00  1.1365335795203628e+00  1.0897797672752487e+00  1.4369141270796892e+00  1.4559362061600749e+00  1.5918627859251688e+00  9.3845727385007005e-01  1.0814116823057582e+00  1.7377460657837611e+00  8.0305058589206890e-01  3.7644278504437825e+00  1.5423592715213805e+00  1.7903984453185682e+01  8.3516516468387769e-01  9.2317826679665571e-01  1.1571924472978712e+00  1.0001620867496273e+00  1.0079518659171736e+00  9.6048772690673090e-01  1.7428300746049912e+00  1.0368697229494286e+00  1.4569757494620184e+00  1.3445120292269357e+00  8.1418515094249500e-01  3.8822460269041237e+01  1.0821512212467159e+00  8.5638094135500564e-01  1.3150004258736534e+00  7.5972546979870037e-01  2.4112893277090839e+00  1.2250966559063221e+00  1.0746231523071179e+00  1.3287681178028263e+00  1.0181644654128297e+00  1.0895592904399574e+00  1.1212938661167924e+00  8.9243619249337069e-01  1.0738588942840994e+00  1.4060121868095456e+00  8.4661550463360669e-01  8.0893255740306891e-01  1.1587741593323604e+00  1.4481495551220285e+00  2.0961957578488857e+00  4.7488108490498355e+00  8.4629749054638159e-01  1.0086652285706277e+00  1.0800963583385883e+00  1.1344473312143406e+00  1.0300069565501555e+00  7.9084878572284656e-01  8.0997055190622469e-01  7.8222244072261760e-01  1.2610361045097180e+00  8.8391783647434448e+00  1.0416040703394033e+01  5.9779366912358656e+00  1.0002273504744044e+00  1.0147109799728200e+00  1.2843662692318805e+00  1.3163023682662394e+00  8.8400477529071197e-01  6.4582464807699447e+00  1.0608607849919316e+00  1.3843918336152252e+00  9.7020137903742121e-01  9.3617439271720859e-01  2.9480584593953406e+01  3.6710815521213178e+01  1.0160043631945566e+00  9.9790490550883082e-01  9.4751887094625353e-01  1.3445880024011172e+00  1.0082357530146937e+00  8.0048748816179982e-01  1.1110278717398439e+00  1.5637822186016639e+00  1.3319467626881112e+00  1.1204197156510809e+00  1.0915122855632819e+00  1.0647555329347524e+00  1.3775106964559185e+00  9.9731201301126515e-01  9.7958140481042622e-01  1.0532417458412491e+00  8.7128496339929162e-01  9.6328143614537987e-01  1.1797114080384565e+00  8.6984720372261082e-01  1.0349007528725389e+00  7.8122199235173573e-01  4.7070774783067030e+01  1.0865165000009249e+00  9.1579934434895502e+00  2.0424300992225177e+01  1.1849156776383938e+00  1.4164897727051828e+00  1.2732122267370740e+00  9.5026941484100969e-01  1.0091910379210565e+00  8.4060890201304095e-01  9.0179462918737741e-01  1.4328667823558073e+01  1.1057995921222632e+00  1.2026104196331346e+00  1.2444490653901856e+00  1.4107809542024983e+00  8.8258913208983614e-01  1.3435355753293605e+00  1.0947380541432101e+00  1.0798789104818518e+00  1.0894902888910465e+00  7.9788202549785436e-01  1.3375967543049372e+00  1.0696794775609211e+00  1.0363226440876190e+00  1.0862907089300264e+00  1.1207080250173156e+00  1.1873960607320182e+00  1.2505724792076149e+00  1.0517690772452399e+00  1.3735320582065433e+00  8.1539488694753604e-01  1.0352992790429312e+00  1.0456011493612480e+00  1.0070250470502571e+00  1.0000925916129015e+00  8.9850045568203563e-01  1.0552270012436368e+01  2.5212307761495129e+01  1.3780883098764967e+00  2.7519625292599965e+01  3.8254404815246352e+00  9.4874623031465100e-01  1.4593971198366280e+00  1.1159251186856434e+00  9.9978680363116312e-01  9.9982913576538535e-01  9.3971249856154717e+00  1.0001035966908842e+00  5.1352988922202996e+01  1.0190002539612997e+00  1.0009387006256767e+00  3.6671577039577326e+00  8.9154854220164348e-01  1.2341506159560607e+00  1.2093952610457608e+00  1.1325394861207221e+00  9.8455346308206126e-01  1.1488595696831663e+00  8.5817441861410282e-01  3.3978736815682154e+01  1.0204158126225196e+00  1.0390859839422160e+00  1.0537860538792490e+00  7.9546797760806021e-01  9.8131702654690289e-01  1.3999558784303539e+00  9.9770729095380117e-01  1.2351699217327272e+00  8.7157442403108076e-01  1.2713189526594353e+00  1.1508714412647474e+00  1.4390586341721274e+00  1.4361675830386837e+00  8.7299355193123631e+00  9.5506173350813495e-01  1.0234025297289642e+00  1.3877739569347209e+00  1.2651399606796132e+00  1.3650867431566083e+00  1.4624512493495825e+00  9.3641155271737175e-01  1.2746737671773691e+00  1.9716813428332858e+00  2.8852477557229963e+00  1.0000140970987024e+00  6.4194120828688284e+01  1.5004999397367633e+00  5.4909141531209848e+01  2.6355654681217953e+00  8.0343214447027100e-01  1.5415145288633663e+00  1.9558426068121169e+00  6.1655137537083071e-01  4.5625164102493931e+00  9.9969363724571603e-01  9.9988064530496235e-01  1.3899524167931412e+00  1.8138253901700558e+00  2.7578003276086243e+00  1.1121679309159591e+00  1.2121433173455829e+00  1.3734285722407880e+00  1.0210087069221570e+00  1.0001350040333925e+00  2.9677690259198322e+00  9.9983975669516345e-01  5.1502896351281791e-01  1.0001922901105498e+00  4.1476213228431975e+00  9.9994570045971887e-01  1.0001994279821287e+00  1.0000304770141608e+00  9.9985151200292699e-01  1.0008256036855765e+00  1.7597973198807868e+01  1.2571841613301873e+00  3.7594418053456565e+01  4.9082397383217632e+01  5.6638162936136972e+01  1.6187541705087383e+00  1.0059734981908306e+00  7.1077596205562898e-01  9.3276973382293349e+00  2.3029716537741297e+01  8.1616817398975627e-01  9.0800133929327853e-01  1.4335525347656064e+00  1.7599001602261910e+00  9.4075532101312453e-01  1.6602498708727631e+00  1.2210556125267340e+00  1.1972397387156104e+00  1.1715717669814194e+00  5.0770562815871925e+00  1.0236886766789144e+00  1.0489592469541729e+00  1.2200443733451092e+00  1.3960823390290840e+00  1.4343240303313802e+00  1.5394025432595115e+00  1.3204456652515417e+00  1.1116124047258285e+00  1.0871522203153670e+00  9.0399504525664276e-01  1.0995768297561361e+00  8.3411375360158857e-01  1.2436218971236663e+00  1.7949787243487747e+00  1.3906197021343636e+00  1.2514673057897188e+00  1.2576641645090141e+00  1.1595356350047950e+00  1.0786373600439858e+00  9.5170094106372582e-01  1.3394046982457100e+00  1.3226003345723241e+00  1.3086387806328479e+00  9.5691271838048597e-01  8.8024214146896906e-01  9.2130025266777182e-01  1.2845359892030774e+00  1.4596371415746383e+00  8.1945084584000905e-01  8.5532877050106215e-01  1.4342891108997757e+00  8.7701655872768547e-01  1.1758821640130432e+00  7.2930209599643159e-01  9.3383321249351547e-01  2.4296270503725874e+00  1.4134699128493784e+00  1.4206736764521921e+00  8.8485110644119447e-01  7.9945693280292984e-01  9.9786501220199553e-01  1.1134230447005953e+00  1.3907276967240660e+00  1.0774700222325813e+00  1.3628306453140968e+00  1.3217037270172882e+00  1.3109050585420696e+00  1.2972090135371659e+00  9.6936055609503502e-01  7.5317451512167588e-01  8.3798581884251933e-01  8.4514622714216547e-01  1.2328046055186119e+00  1.2415784670382328e+00  1.3881207862896494e+00  1.3964408473908350e+00  1.3713601258944410e+00  1.2058724149893651e+00  1.1506882288042402e+00  1.3805711008796502e+00  1.1156643694990174e+00  1.1486174977959780e+00  9.9868494215491210e-01  1.0800318072323756e+00  1.0047338805828294e+00  8.5607124919329580e-01  1.0404472529361863e+00  1.1259352953527721e+00  1.6621104221629210e+00  1.2187774646810849e+00  9.9584972285761342e-01  1.4392513350895981e+00  1.4265782430397544e+00  1.2892525768518743e+00  1.0053870932117916e+00  7.2255832534546416e-01  1.1245199171699238e+00  1.2144617846802097e+00  5.7410458273516189e+00  8.2980361673515768e-01  1.3711067744714382e+00  1.0154337463998904e+00  1.2408756132592307e+00  9.0988931406650586e-01  9.5682667993877957e-01  1.4938244287913893e+01  1.3620350529870445e+01  1.5599079627491314e+01  8.2785202913534117e-01  8.3722671493981771e-01  1.3882316573416384e+00  1.1757557813030548e+00  1.0991168961937079e+00  1.1713600782741906e+00  1.3664250258844366e+00  1.2437346782545533e+00  1.3755146343611120e+00  1.3948414693511517e+00  1.4147946205193245e+00  1.1548137971116121e+00  1.2990368453578784e+00  1.2895048338786776e+00  9.4488768811389989e-01  9.3307770370954313e-01  8.4917701721779082e-01  8.0769314774934953e-01  2.3329006782513986e+00  8.2118837863093486e-01  9.9221804084001652e-01  9.1277181159403298e-01  4.5324281287231003e+01  1.1216759795140856e+00  9.5883569433312732e-01  9.6908981885165635e-01  5.6940370068537320e+01  1.0370021809892231e+00  9.6514184050970508e-01  1.0638423