<?xml version="1.0"?>
<VTKFile type="UnstructuredGrid"  version="0.1"  >
<UnstructuredGrid>
<Piece  NumberOfPoints="4984" NumberOfCells="9710">
<Points>
<DataArray  type="Float64"  NumberOfComponents="3"  format="ascii">0 1 0  0 0 0  1 0 0  1 1 0  0.5 0 0  1 0.5 0  0.5 1 0  0 0.5 0  0.5 0.5 0  0 0.25 0  0.25 0 0  0.25 1 0  0 0.75 0  1 0.25 0  0.75 0 0  1 0.75 0  0.75 1 0  0.7083333333333333 0.2916666666666667 0  0.2916666666666666 0.7083333333333334 0  0.375 0.25 0  0.75 0.625 0  0.2569444444444444 0.4652777777777778 0  0.5366379310344828 0.7535919540229885 0  0.1875 0.1875 0  0.8125 0.8125 0  0.869047619047619 0.375 0  0.1450441919191919 0.6052714646464646 0  0.375 0.8690476190476191 0  0.5526960784313725 0.1825980392156862 0  0.8385416666666666 0.1614583333333334 0  0.1614583333333333 0.8385416666666667 0  0.6736111111111112 0.4652777777777778 0  0.1367521367521368 0.3477564102564102 0  0.6570970491253563 0.8648656830417855 0  0.5102479397556124 0.3386260301221938 0  0.3654513888888889 0.5737847222222222 0  0.6929750044954185 0.1362784921584263 0  0.388576102743835 0.411911725237599 0  0.6091269841269842 0.5942460317460317 0  0.875 0.6875 0  0.427278890279516 0.119889445139758 0  0.8544456845238095 0.5213913690476191 0  0.125 0 0  0 0.125 0  1 0.875 0  0.875 1 0  0.1280008648150532 0.4769292340226777 0  0.2695382451711197 0.3321750950221553 0  0.7031567235715964 0.7447810921428012 0  0.625 0 0  0.375 0 0  0.125 1 0  0.875 0 0  0 0.375 0  0 0.625 0  1 0.375 0  0.375 1 0  1 0.125 0  0 0.875 0  0.625 1 0  1 0.625 0  0.2979288363930608 0.1201429454643536 0  0.410919540229885 0.7484605911330049 0  0.5325041980395562 0.878905151526474 0  0.4831670727569156 0.6331060043826487 0  0.1735997378973042 0.7204747378973043 0  0.2534919507575758 0.5772372159090909 0  0.2633928571428572 0.8876488095238095 0  0.8199404761904761 0.2730654761904762 0  0.75830270586982 0.3919383189517417 0  0.5750282248382511 0.4237522353023667 0  0.6008360210023379 0.2794828358598495 0  0.08163442644334186 0.6821295860397322 0  0.08333333333333333 0.1875 0  0.2028380815996574 0.08844602719988583 0  0.2766521142611967 0.2325436572164097 0  0.90625 0.78125 0  0.890625 0.890625 0  0.7545696325008384 0.8973565441669461 0  0.5625 0.08086590340834317 0  0.09077380952380953 0.09077380952380952 0  0.4610923478694773 0.209034015149656 0  0.7542527598351648 0.5248380520595106 0  0.6459235536037465 0.3619913988405765 0  0.7560381768882634 0.20506142233852 0  0.07073252688172042 0.8125 0  0.0924753097241701 0.9078102849914793 0  0.9292674731182795 0.1875 0  0.9075246902758297 0.09218971500852073 0  0.8125 0.07073252688172045 0  0.2400955776842301 0.7869705776842302 0  0.9121050213379069 0.2781978201831695 0  0.7916878157143976 0.7239689078571988 0  0.9345238095238094 0.4375 0  0.4375 0.9345238095238095 0  0.3725616989755203 0.6651895248862173 0  0.06536271996350887 0.5625 0  0.9348362560379583 0.5625 0  0.456646798987055 0.8277247094351965 0  0.1875 0.9355758238725954 0  0.6169761231634859 0.6939779188977889 0  0.6226854751147515 0.7827911461419014 0  0.3305695598137626 0.7901697871282585 0  0.5865305325818898 0.5101085479043448 0  0.6622701297028378 0.2177663989757395 0  0.1354166666666667 0.2591702279202279 0  0 0.3125 0  0.2094429575680048 0.3936361846162499 0  0.836666296419157 0.607917407161686 0  0.6875 1 0  0.214261555450504 0.6492551722020035 0  0 0.4375 0  0.07731537126068377 0.40625 0  0.3427725432967068 0.4879566233699599 0  0.3550792513951871 0.3331953632609953 0  0.4462473953896857 0.2887834789342508 0  0.4747801464819794 0.417386052030127 0  0.8229836475148948 0.4443292349237342 0  0.7322605135514757 0.8199240278289671 0  0.6756431877205955 0.5468989748126787 0  0.1968419507215863 0.5194573482612496 0  0.3285590277777778 0.9345238095238095 0  0.8125 1 0  0.4198917601920009 0.5134893045331258 0  0.5232405503206691 0.2595791787880157 0  1 0.9375 0  0.1987510870015086 0.3025185951894431 0  0.5625 1 0  0.6005390654136388 0.9228110509230952 0  0.6411254848194414 0.07704872765442942 0  0.3357233162523242 0.1855113224530532 0  0.6730653396610877 0.6393887462324165 0  0.310966987234063 0.6240019765311626 0  0.7368737836204349 0.07457755202327881 0  0.6192316414418171 0.1485238406378594 0  0.5432429670607106 0.678552703844006 0  0.4754371679695679 0.7103946803120881 0  0.07501324890749672 0.3043839897335739 0  0.5358146975860403 0.5688321463205916 0  0.3115271739500156 0.3982137365971444 0  0.3625191397122174 0.0767854603650549 0  0.5024029442563831 0.1264128223758444 0  0.4375 0 0  0.4699946908887376 0.06379961173775725 0  0.9375 0.71875 0  0.9272105898044465 0.635671179608893 0  0.9375 1 0  0.6690971819568612 0.9331530898202766 0  0.1073454944778885 0.7499206387638554 0  0.8699082999280406 0.2232403652524313 0  0.5773118091863964 0.3548027349159383 0  0.1354166666666667 0.1428571428571428 0  0.3125 0 0  0.8241684193077341 0.9257452995055244 0  0.4352314948354036 0.3586940847489378 0  0.4351301473778832 0.5819726043539077 0  0.8073232928518163 0.3419398170341962 0  0.7775949246947366 0.1298519409204575 0  0.6875 0 0  0.7413513991851041 0.457933324954483 0  0.939453125 0.841796875 0  0.5630355154606987 0.8171875156478349 0  0.9345238095238095 0.3461466592368577 0  0.9375 0 0  1 0.0625 0  0.0625 1 0  0 0.9375 0  0.06552178593177167 0.4969053669623468 0  0.1424866619031703 0.4130277709291224 0  0.1275287182444726 0.5422946908002588 0  0.2637686595586339 0.06413888464529549 0  0.2524263535491086 0.1697437503243817 0  0.7367218397988525 0.6888573970660841 0  0.0625 0 0  0 0.0625 0  0.8463594539285995 0.7578283617857982 0  0.3128751192101563 0.2851997374369947 0  0.4015281788351144 0.1806421385113692 0  0.1910251795116588 0.4553332197174453 0  0.287797471442006 0.5222621440543902 0  0.3962628745986055 0.8097380085535307 0  0.3505895299554843 0.7304878890838692 0  0.5019151500495276 0.9356042615328103 0  0.9374389419410134 0.4999931039076005 0  0.3125 1 0  0.1875 1 0  1 0.5625 0  0.4375 1 0  1 0.3125 0  1 0.4375 0  0.8125 0 0  1 0.1875 0  0.5625 0 0  0.1875 0 0  0 0.1875 0  0 0.5625 0  0 0.6875 0  0 0.8125 0  1 0.6875 0  1 0.8125 0  0.8021696218581627 0.6612893947866073 0  0.06154922295426143 0.6239401126946708 0  0.9359375 0.9359375 0  0.4666158024849896 0.7691515918155014 0  0.2318201265217025 0.7064974250277525 0  0.1565954253579966 0.6635489312486841 0  0.1598132503680848 0.7787147500325552 0  0.3146529991605639 0.8510876378205265 0  0.1461873209418733 0.05982804528877814 0  0.06109554988524315 0.2446551776247686 0  0.8054950308560754 0.5564226538848541 0  0.470541749491976 0.8853316336952531 0  0.6948472567465137 0.4042308563372457 0  0.8802828472348889 0.4658893256343853 0  0.6788075634946739 0.7974194205806069 0  0.2155048659603867 0.2428201584940968 0  0.8131223143423806 0.2132171049028394 0  0.4330798005432235 0.6671274900735726 0  0.6015279126162613 0.2187368078743274 0  0.8061636571464289 0.8703766630361714 0  0.7008230445061776 0.3478568388444072 0  0.8638466246958771 0.3147095987735538 0  0.204801534004265 0.8789209409594009 0  0.2449006736431132 0.9424182882803838 0  0.7611268409371427 0.2643056884799992 0  0.7552800864046191 0.7678006649959446 0  0.5983639638906616 0.864113435029236 0  0.1956559506814437 0.577281203577426 0  0.3527670268164207 0.1320469097565204 0  0.7530364577483248 0.3262386077083089 0  0.4535919187979363 0.4690107087451527 0  0.8824869791666666 0.8336588541666666 0  0.8814453125 0.9451171875 0  0.5582987942628019 0.622421666543858 0  0.6817532446064828 0.6939001801354731 0  0.3830295138888889 0.9450968952922078 0  0.4140603937012541 0.05211333372716105 0  0.5535864501303013 0.3060591985391672 0  0.6560130086346878 0.2729726562211558 0  0.890203140221684 0.5948314305427268 0  0.7043857725999024 0.593980890020804 0  0.5105843922695152 0.8016828014338627 0  0.05365910753708378 0.7315110031682004 0  0.616904573672261 0.4621186633436136 0  0.5338511646455415 0.387875898899613 0  0.5231769258947843 0.4477682463140762 0  0.650302973237622 0.7370722302085519 0  0.3927483139621257 0.4662414504529014 0  0.8034595960585199 0.4972538342758211 0  0.7738337841682438 0.9496376207663251 0  0.7193737507158268 0.954685447650112 0  0.482525916480686 0.5528257169991676 0  0.2533501157346781 0.2809495420003238 0  0.3118487924482243 0.5702930126570319 0  0.6257598847669529 0.4104163315430518 0  0.1354166666666667 0.1955605158730158 0  0.04166666666666666 0.15625 0  0.3956448985530264 0.6174149462065157 0  0.8102897701818546 0.3938784238208349 0  0.2641154190013625 0.8344469561943118 0  0.642852220770013 0.5068794586563659 0  0.05271458179508221 0.355846947336007 0  0.7021551360070266 0.8921457280225779 0  0.5692125776683765 0.1328512638850284 0  0.5206162811937602 0.04865158770992991 0  0.6001838442201555 0.04540556991297563 0  0.2597716608242787 0.4118346398477178 0  0.4040584599473195 0.3179589136784675 0  0.1480337679295207 0.8941560631483065 0  0.1344356707112281 0.9466251177415842 0  0.7114696411829317 0.4983917389078826 0  0.7585704698442475 0.5751926345944629 0  0.2189131956390871 0.04022068508159698 0  0.2476935455192043 0.1123642267635843 0  0.185995005654517 0.1365524537205238 0  0.6223414373308711 0.643380839165121 0  0.5732602596637543 0.7190051747306219 0  0.268358222364537 0.6586246524467934 0  0.3265879848129173 0.2369791782191225 0  0.1267095595787346 0.7034787238999181 0  0.1115202922226038 0.6421997933884982 0  0.3128688392940203 0.07260997451790079 0  0.550724900485678 0.9253360991633187 0  0.7142608810459105 0.2384904702214873 0  0.7045869185243887 0.1871826897887429 0  0.890625 0.734375 0  0.953125 0.765625 0  0.2111812642821677 0.8286209446459138 0  0.9590293078204457 0.09375 0  0.953431269039847 0.1435719386408004 0  0.04097069217955424 0.90625 0  0.04656873096015299 0.8564280613591996 0  0.1078743037981226 0.8541621766048062 0  0.8921256962018773 0.1458378233951939 0  0.8521576979194619 0.1084496634207678 0  0.8655663982740958 0.05464346096571447 0  0.04005659640905543 0.09375 0  0.1001448316533417 0.04246776244228261 
[...]
<CellData  Scalars="f_3524666"> 
<DataArray  type="Float64"  Name="f_3524666"  format="ascii">3.1750803953685602e-03   5.1098421166265206e-04   6.3960529002501302e-04   2.0294040036394334e-04   1.8939746563659547e-03   3.7367014798329298e-04   2.6527616090090418e-02   7.2324495100329056e-01   3.2666946646556401e-04   6.8159469731949489e-04   6.3400631824552032e-04   2.8888521054509146e+00   6.5074281626117321e+00   6.3444980426563602e-01   1.3151851073737475e+00   7.5490054602511611e-02   9.5029485128613012e-01   2.6855525477977901e-03   5.9881864140225484e-03   2.3630484621146039e-03   1.2675372046488137e-03   3.8528587885671470e-02   4.8769681342010013e-02   1.2309440393656357e-02   4.7902549750809421e-03   1.8285987170287413e-02   8.6356500402797430e-05   1.1271247241036446e-03   1.0365598615988898e+00   2.1424016161936768e-03   6.4648455877293308e-03   9.7770288661323083e-03   2.7188253568592073e-03   6.7619010194768743e+00   1.1129400889945550e-03   3.5082733137857471e-03   4.9250745016731438e-03   2.0849067106058022e-02   6.0652501761969901e-04   6.1047063967666010e-03   6.1146854219837812e-03   3.2302971197233224e-03   2.6563779456241449e-01   9.1707584209630433e-01   5.3580148656917409e-04   3.9177735900304844e+00   2.6143202494766055e-01   4.1679245490734045e-04   1.1331565994152720e+01   4.3452274734007297e+00   2.7241218211331201e+01   8.6492844166660312e+00   4.2132432781478556e-03   1.5999159383162343e-03   3.5900436614782444e-03   3.9461462068493396e+00   7.5345139457802787e-02   6.6995901628795344e-04   7.6041334888370398e-04   1.2665792986260838e-01   7.1212400773091933e-02   5.1096043397809595e-04   5.2836631080998642e-04   4.0857445420298347e-03   3.6528578688941667e-02   4.4347635266736686e-03   1.5093832701255489e-02   8.3062070089208299e-04   1.3801948481186805e+00   3.7624982660204931e+00   1.8734765737335057e+00   1.0091137089468072e+00   4.3526307665670125e-04   4.6182249745883083e-03   1.5955434339955069e-01   1.1978904321778032e-02   1.7009667553819947e-02   5.7597275065466805e-03   7.7913198196609811e-03   5.2752240952178954e-03   5.4080141083458592e-03   5.2812984790860879e-03   6.2376747063994341e-03   5.4158077659147008e-01   3.3662717873170029e-03   1.4720419061605720e-03   2.4572504397978577e-03   1.5540867984534332e-02   8.5122151188670291e-03   2.3721524390598533e-03   1.0879824810297713e-03   3.3491666545610197e-03   2.0450078312261470e-04   2.8373133186737886e-04   3.5605796074781253e-04   5.2440744904336473e-04   6.9719119971625612e-04   2.5812643058984190e+01   1.0083070528002718e+01   1.2381771146603166e-03   5.6773299925152554e-04   3.5925311457764516e-03   1.1800141715272569e-03   5.7165387430776919e-02   3.0509720875234143e-02   7.6867560851656119e-03   3.7610322775105658e-03   2.3671672865471947e-03   8.0842257333328118e-04   1.7700390742898939e-01   3.3271393609561821e-02   7.7056190861784471e-04   1.3894991803475969e-03   6.9752907718391465e-04   7.5497483614921871e-04   1.3111829557105799e-02   9.3778428294417869e-03   4.6110053924097233e-03   7.3872312945531415e-01   4.4113326405847886e+00   2.6266859771337539e-02   2.9105948045957408e-01   5.2438832138448771e-03   5.5395340596215452e-03   2.8025862134372645e-03   2.9197942135800389e-03   1.1299326021117855e-01   8.4544519471488710e-01   2.9000271244613152e-01   4.4382796808806546e-03   6.5814031340678692e-03   9.1495513101589928e-03   7.5525589883260691e-01   8.3879317445458942e-02   2.2365508736570144e-02   1.2254560390935083e-01   5.8681813524420354e-02   3.1471662601006423e-03   1.2271986977021889e-03   2.5236670698983834e-03   7.5538204012857177e-04   2.7955951761172017e-04   6.3214963892155188e-04   1.8601382356952519e-04   3.8481514238820022e-03   2.3637929020664944e-03   5.0595165749579722e+00   1.2670115345433912e+00   2.1392629729337611e+00   9.5176709089954539e+00   7.7170753191872152e-03   5.6942255989158239e-03   1.6964269465342950e-03   3.0524755349303762e-04   7.5126546563865620e-04   4.6487659760471312e-03   2.3510927001804474e-03   1.5656557596081802e-03   2.9736949589643218e-03   4.4651190645302362e-03   2.0289084454105195e-03   3.7735867328497889e-03   5.0033571023119202e-03   4.0701304815707086e-02   3.2133004337225629e-02   4.0791197321574328e+00   6.6773618346858443e+00   5.0824288525409322e-02   9.8072168643731413e-03   2.5599688828346805e-03   1.2358784557012369e-03   1.5796119691700253e-02   3.3333479675243671e+00   3.1202709272296516e+01   4.4581607799944398e-03   7.6002637970722531e-03   2.3686439627905727e-03   1.4629241734271429e-03   1.4990956666879383e+01   1.6314193931642386e+01   9.2948937854041454e-04   7.4445207388421238e-04   1.2108215241040319e+00   1.8614392427259215e+01   1.2357849867674540e+01   8.0360361589440501e+00   1.2884517181598722e-03   8.9755335973785576e-04   1.0736599129030969e-03   1.0293214659241101e-01   1.3759057011054274e-01   8.3905835095175307e-03   6.5483029578579698e-03   6.4746313808927290e-04   9.4282040550228326e-04   8.5464072505512395e-04   1.0454240480830441e-03   3.7427532118664850e-03   3.9488302798337685e-03   5.7886761178146465e-03   5.1277987779274406e-03   2.0118200016406692e-04   1.0098692901041241e-03   6.7003491133961366e-03   8.0132814655339713e-03   3.8527699525501714e-03   2.6791238490740691e-03   6.5592533286435556e-04   7.3792372859544171e-04   8.0390050262091665e-04   7.5367456488744126e-04   6.8367383115874739e-04   7.8941540293587565e-04   2.3849946387754262e+00   4.6884682917705760e+00   1.7847199996234620e+00   1.3189509392492880e+01   3.9568306046326519e+01   1.1783226275103042e-02   1.4405760560023035e-02   2.5297455046743578e-03   4.3920523761682758e-03   3.4466170407947013e-03   7.7902414276802704e-03   2.7537954891167444e-04   2.7515002977946263e-04   3.2481190566195679e+01   1.8847061053354253e+01   3.1772713911717024e-03   2.1638426835781698e-03   5.6874625994894328e-03   8.6374929843901858e-03   1.7674531768538530e-03   6.7298409990670677e-03   1.2474324825776579e-03   1.3000809139670940e-03   3.5658863237211536e-04   1.5317608393506101e-02   3.2898966496360672e-03   2.9085046133959025e+01   3.8559353573921706e-02   7.4183255656259106e-03   9.8782473083165127e-03   1.9268547420701033e-02   3.6853204588740892e-04   4.0433087722857430e-01   1.4978946896723633e-03   4.8676723374672737e-03   1.3749014844301772e-03   6.0236800943350686e-04   3.2852839700506118e-03   3.9638792034641787e-03   1.3515971622795142e-03   4.9476256565659875e-04   6.9074476290118837e-04   4.7554063739102184e-04   1.0350463233683007e+00   1.0125890106516731e+00   2.4822649323817886e-04   1.1289324751991108e-04   3.8609024300614574e+00   2.0282134149211611e+01   9.8099520579353165e-04   1.2667934792768901e-03   7.0524298872274931e-04   1.2560815607998868e-03   5.0843412774997888e-03   6.5990754842116311e-03   4.2882470523276529e-03   4.1867924404248979e-03   1.0434081019994698e-02   9.0960464311533647e-03   7.8992749315029837e-03   3.3453875464318759e-03   2.2146934047609528e+00   4.4099085397357625e+00   2.1910835779029175e-02   9.0506192345928671e-01   1.5284272788504241e+00   2.4866024394582480e+00   2.1070817368126399e-01   4.3361354603553331e-01   3.6157436765625870e+00   3.4456191309662834e-03   2.5315619037412835e-03   1.1109098629376804e-02   2.3497483621290333e-04   1.1214595285304557e-03   8.7319889870989204e-04   1.6746979628933041e-03   1.8502870117327851e-04   2.0297327554095050e-04   1.2210403369305678e-02   5.4504151970544250e-03   4.7631307993895526e-02   1.6811711657326867e-02   3.6329067654913444e-01   6.1326472996409738e+00   6.2580548961905240e+00   2.2460360048323125e+00   4.0217579842040324e-01   1.2748460093735361e-02   6.5789818022956901e+00   6.7498554357580676e-03   2.1159869439289165e-02   8.0955074799478732e-03   7.1155160023308375e-03   4.1926444399895705e-03   4.1757123814696916e-03   6.5509851428706516e-03   8.1141882609916550e-03   6.0484927663591559e-01   5.9749345630460277e-02   3.1619239642045627e-04   4.0764552390247749e-01   1.9545670379392358e-01   6.6475970913768417e-02   4.2339954232782445e-02   3.3364245498482763e-02   8.5666511724369846e-03   1.0199190573546743e-01   2.9285687388173559e-01   1.1876189575729872e+00   4.8070698183242572e-01   3.4713006643563457e-04   7.4395757354514687e-04   9.0495319099775972e-04   1.5397782228775733e-03   6.2766918179006327e-03   3.8473292921330279e-03   2.2699382421879663e-03   1.1960324508076131e-03   5.0611504724568928e+00   1.1664538021944271e+01   3.7295386346081296e-03   1.9939461689044871e-03   6.8082194165060110e-03   2.7937335472384838e-03   3.5548075582600279e-02   2.2733829097461106e-01   8.3346328299268180e-01   3.8251147089101030e-03   1.4829921026035973e-03   1.6120470494975674e+00   2.3357445218183517e+00   1.5525370561862954e+00   1.5816580086217951e+00   6.5876354389551141e-03   3.5045383269853001e-03   4.9079788605446879e-04   5.3402900119524832e-04   3.5873516026658702e-03   2.4281904723870932e-03   4.1436658126615669e-03   1.6369353336013962e-03   2.2436674207797111e+01   1.7455779340527329e+01   2.5831737199127339e+01   1.5481092717238526e-01   2.8160500403776106e-01   2.2373397637217667e+00   2.7640462624744605e-01   1.8137212722669447e+00   2.9165544725902751e-03   4.6549522933280801e-03   2.7756777008097621e-03   3.2749788414661823e-03   4.1271650451846897e-01   3.0962708390540705e-01   1.4179607468951555e-01   2.5483386796099516e-01   1.4587722595214700e-02   8.4254461768057592e-02   2.5549881740348990e-02   1.5442567493261712e-02   3.4928032657113063e-03   5.9755835921601452e-03   4.4866517365969106e-03   3.8597649576853446e-03   3.9825530485401378e-03   3.1145528846067980e-03   1.2803078758589685e+00   1.8926204732980081e-01   4.9800147934108167e-03   2.5328351291159629e-03   8.7561338164137192e-02   6.3728991163633342e-02   1.7821209050465519e+01   2.1421807467785765e+01   2.2959363866218904e+01   5.1445219725948952e-03   4.9312036928355193e-03   1.5260769611206281e-03   1.4461658664321974e-03   7.5035832562561798e-03   8.9722801341619220e-03   2.4144748640897644e-03   4.1149015485434839e-03   2.0769580568520644e-04   3.2600033585782962e-04   1.7053153111119782e-04   3.1759076067277106e-04   9.2950347256536715e-03   6.3361192114175227e-03   2.0048905561674015e-02   1.3961249377716501e-02   3.1856956411048000e-02   1.9044651039444933e-02   1.8892760519636141e-02   1.4671113422950041e-02   5.3628113859475167e-04   3.0720632329931367e-04   4.7854395285052380e+00   1.1925059873968367e+01   1.1734547140183232e-03   5.8349551293371943e-04   7.9592650713933299e-04   9.8349010417073590e-04   3.8377238464764253e-03   1.4434210821668671e-03   1.8079144830407681e-03   1.2073510843387265e-03   1.1252769513614637e-01   4.7615517475310912e-02   1.3605232524662503e+00   1.6797989610744083e-02   6.3054073250123827e-02   1.4410302375994929e-01   1.1948963258317753e-01   3.7487958922212855e-04   2.7454621576938443e-04   4.2136262751682452e-04   5.4507079161944072e-04   4.0872599124071329e-04   3.3062149570288902e-04   1.2722512545156354e-02   8.2902791589502367e-02   1.4966243990999789e-01   1.0217149470611340e-02   6.1779433459706306e-03   5.7668415542320491e-03   1.2756777765955687e-03   8.8329241786144850e-04   4.4936115899529439e-03   1.0305697235553935e-02   4.1182765575244673e-03   5.8183119196919490e-03   4.2473431787516371e-04   3.3617263041713053e-04   1.7381061888118987e+00   4.4957885572405347e+00   2.1974387330846697e-03   2.1779212289737321e-03   2.3556922842433077e-03   2.4931055391572898e-03   8.7042427541322347e+00   2.4527144154480678e+00   8.4176004420436499e+00   4.2540302871280842e+00   1.0349324712713374e-02   8.7303319657226919e-03   6.7003439574600174e-04   6.2688221423224755e-04   4.7927772080923617e-03   1.3008730897876877e-01   4.2801335812260484e-02   5.5689117272593590e-02   2.2161681942674583e-02   1.5018858045259747e-02   1.1337342378185816e-03   8.3687700084783935e-04   1.0506435106000188e-03   6.1351842548019932e-04   8.8551741165045347e-04   5.4534910744356260e-04   1.7440657878411064e-04   1.4401687570953493e-04   8.0296227803394493e-05   1.1145325340434799e-04   7.1549143905738773e-04   9.3721808369496373e-01   7.6857363898448094e-01   2.3787473366829229e-01   3.0150546712171867e-02   1.0673806359559575e-03   7.5131075955840341e-04   2.6470930456494652e-03   1.9061391533331991e-03   6.8096974822361872e-04   1.0880103851135634e-03   1.5599370600691772e-03   1.7900439927863113e-03   4.4867338497724688e-02   7.4070330404944693e-03   1.4177624170978360e-02   1.0008921579581768e-02   3.5278620884561054e-03   2.9930064139113187e-03   1.1720587076658453e-04   1.9148652791313342e-04   1.5971378714421062e-03   3.1074070999809085e-03   2.0081750109104293e-01   5.2769265269538334e-03   3.7069659737235974e-03   1.6691259728753078e+01   1.6355398721109417e+01   7.9531252992411580e-03   7.1321991202569612e-03   6.6359628166556845e-03   1.8961180601948614e-02   2.6009100885894237e-03   3.4942025029844909e-03   1.1460212283985944e+00   1.0581823953519740e+00   1.5965939265814946e-03   1.0010556221007336e-03   5.8843461961320034e-03   5.3339665259410536e-03   7.8730909045170822e-04   6.5810765997670133e-04   1.9103510591418839e-03   1.3655297411657883e-03   6.0363486796772819e-03   7.7068364118191282e-03   1.3373043162322481e-02   1.0719868969844599e-02   1.4793029905501521e-03   1.5366279205826178e-03   4.8074510524679081e-04   9.0729226615569418e-03   1.0333617084896043e-02   4.2803897553224064e-02   1.7095795993413054e-02   8.8751600666529449e-04   1.3828770664309137e-03   2.3025739981499281e-02   1.0285681857908402e-02   2.3512295193233736e-04   2.4353274702467617e-04   8.5842853903113662e-04   9.3282656243119644e-04   3.5278591795183008e-03   7.3971504460303280e-03   1.9649615003284238e+00   4.2216772670789080e+00   3.6874597086345373e+00   7.8975076944442888e+00   1.3902345923820031e-01   1.9028574377374141e-01   7.6236433263834576e-04   1.4070904693514674e-03   7.0634350615611675e-03   1.2716740220899112e-02   1.8153523059214381e-02   1.1754585870483843e-02   1.5514706018292936e+00   8.0543827826696206e-03   5.3617639808408160e-03   1.7695594810718481e-03   2.9080599175312277e-01   2.7602636637339911e-01   5.4439207341911433e-01   4.2182653170002573e-03   2.8005303092190972e-03   7.3727569987505864e-04   4.6160952735977497e-04   3.7388121276759742e-03   2.6302416754002502e-03   4.8797957857155607e+00   6.1835695508973849e+00   5.0899844820539498e-04   7.1203004082862086e-04   1.4389307940292324e+00   1.7974925022898940e+00   2.2366605821645096e+00   4.1788215616141100e+00   6.6583024996660694e-03   3.8296097524237352e-03   2.4451796653000759e+00   1.3178578861140580e+00   5.8391466538636298e-03   6.6506639778303933e-03   1.7774708570798803e-04   4.7839779949441325e-04   1.3868246404980073e-04   2.1636670944078439e-04   5.4937806710176002e-04   5.4854836515711466e-04   2.1393753862137110e-03   5.1409806673413638e-01   1.9867589609072331e-01   6.3183108315399694e-02   4.8298187852286102e-02   6.8850515223029030e+00   3.7217988573305755e-01   1.3846532885491963e-01   8.4639735122095239e-01   8.3554515528729012e-01   1.7257189625087481e-03   1.3538521395840451e-03   1.2751032950765090e+01   1.4911578872827347e+01   1.6999413837436986e+01   9.0380862234923712e-03   7.1625443467801002e-03   4.3559947675148990e-03   3.2356959400241677e-03   2.2901663889617712e+01   3.5089397008311018e+01   9.8284070840839212e-03   4.4595350554507435e-03   5.5267060162899782e-03   4.2845152016805161e-03   2.2853061434727586e-04   2.2974734463557402e-04   5.6586188240496625e-03   4.0037953528733773e-03   2.2743796665212248e+01   2.3779653516800762e-03   7.7558240879163458e-04   2.2712012091020933e-03   2.1478906886123910e-03   2.8827365503098844e-03   1.1563249691869380e-03   2.8085134481826497e-03   3.6493392829640473e-03   1.9619800176483080e-03   6.2753325647120521e-03   6.2448132305655754e-02   5.1686781847444095e-02   4.1081251381153722e-03   6.5914016092062620e-03   8.3559973567085433e-03   7.3650847727181404e-03   1.6427227960732108e-02   8.1416286308181422e-03   3.9947922769255030e-03   8.1117739697590049e-03   6.8283758506290518e-04   5.5210164108097644e-04   1.9218592096242636e-03   1.2918040419252358e-03   2.2955960587559181e-03   1.9243338829496232e-03   1.2929759500468090e-03   4.3556248184041706e-03   2.7975433610883854e-01   8.6809814476366232e-01   6.9248910116585555e-04   5.0498723728187160e-04   2.3087989098388539e-03   4.0234260220396844e-03   9.4327420334972860e+00   1.1237622429449640e+01   5.6537879027618544e-03   5.8785024266582494e-03   7.3015691131371501e+00   2.2112608650043550e+00   1.4411940641163761e-04   1.2541473000810975e-04   3.4914297777910203e-04   2.4603730401841346e-02   1.7312089616060306e-02   9.2621651923044234e-03   1.2828399281590509e-02   6.7557398132643710e-03   5.7547550724174161e-03   4.1828598961157204e-02   1.5229659376748567e-01   1.5244315142790425e+01   8.9675352352508089e-03   6.2814477645234991e-03   8.9720547507554183e-04   1.0397404974411717e-03   8.5371054923665066e-03   1.0406159542529802e-02   5.0834619169603610e-03   4.9442657075742724e-03   4.0942631602146156e-04   8.4583363087776013e-04   1.4746636348162822e-02   1.2145943885937956e-02   7.4443324888626334e-04   3.7992190706440907e-04   4.3933038713468682e-03   5.8161412936361999e-03   2.0939944587785682e-03   3.9525926382654305e-03   1.3018883820781038e+01   3.2465230468022330e+00   4.7183325468098665e-04   3.4812239421266460e-04   5.8133610949756172e-03   4.2420997218809275e-03   5.3783740130081727e-03   4.6992129909169521e-03   1.6588945340604233e-02   9.9683213448854870e-03   2.3892794103660985e-03   4.5916571356837306e-03   1.8962113240831172e-03   1.7202668067929782e-03   1.3259253815306524e+00   1.7451171875747229e+00   6.2994989372762742e+00   6.6487438384294331e+00   5.0140009494634551e-03   2.8571434494386221e-03   2.9291977423828116e-03   3.9751835777983077e-03   7.3169855589306654e-03   7.9866940409300952e-03   1.0432261942805478e-01   1.5165484692941138e+00   3.7162292556362703e-01   4.4997359272591408e-01   1.1512021494796075e+01   6.2014632742862270e+00   3.2514874172835078e+00   1.0029660910798428e+00   4.6620918527364612e-04   8.5175045422159010e-04   1.1975867249822418e-03   6.4202734420591850e-03   9.8466605516399179e-03   2.0940291593116672e-01   6.4736403915431862e-01   9.6603815629235412e-01   4.2945094957340970e+00   9.6818866540264773e-04   8.7711714804906212e-04   4.2858253172817481e-02   2.2736025446168991e-02   6.9435568374896176e-04   5.0303968598332347e-04   4.6663232797238794e-04   3.1240527993879770e-04   2.5217829116377772e-03   1.8154362701419725e-03   5.7620316453662452e-04   8.2544859577178781e-04   1.2745499793296528e-02   4.7313013101695264e-02   3.8138437263143237e-03   3.7044848897494621e-03   1.2789904357266007e-03   9.7743791541000566e-04   2.2742628251829142e+01   2.2462595176667929e+01   2.4751737659629617e-03   4.4390516353120194e-03   2.3108999124787871e-01   2.4890024851521081e-01   2.9831810262445193e-03   2.9127572841447162e-03   6.5985030142883970e-04   6.1636327791314907e-04   7.4883709711588871e-04   8.8547454505483647e-04   8.2093288231772591e-03   6.6521101200333619e-03   1.0472995266059197e-03   9.6724802133060805e-04   7.2440866696849782e-01   1.9157475715174108e+00   9.5268209523670692e-04   9.7526955795593727e-04   1.2675213067249416e+01   1.4359824708368212e+01   5.0072871847157054e-03   1.2208510898929149e-02   1.1066850561461070e+00   1.5712157176235322e+00   9.3021917356719678e-04   4.0791093899899335e-04   5.3649923888784189e-03   6.2021467884140350e-03   4.6076043873728327e-04   2.5459480501420434e-03   1.0790337329934412e-03   4.3174952739966441e-03   2.7791365154623015e-03   4.0110472238452767e-03   4.1433864124963077e-03   3.4676812335180590e-01   3.3576253939355594e-01   2.8176474247346814e-03   2.6818324053348793e-03   3.7246484524960813e-04   2.0481515952520744e-03   5.8459611767757748e-04   9.2451987462596990e-04   1.2948898764213288e-03   1.6292028685629691e-03   5.3476858259694944e-04   5.7385