<?xml version="1.0"?>
<VTKFile type="UnstructuredGrid"  version="0.1"  >
<UnstructuredGrid>
<Piece  NumberOfPoints="4984" NumberOfCells="9710">
<Points>
<DataArray  type="Float64"  NumberOfComponents="3"  format="ascii">0 1 0  0 0 0  1 0 0  1 1 0  0.5 0 0  1 0.5 0  0.5 1 0  0 0.5 0  0.5 0.5 0  0 0.25 0  0.25 0 0  0.25 1 0  0 0.75 0  1 0.25 0  0.75 0 0  1 0.75 0  0.75 1 0  0.7083333333333333 0.2916666666666667 0  0.2916666666666666 0.7083333333333334 0  0.375 0.25 0  0.75 0.625 0  0.2569444444444444 0.4652777777777778 0  0.5366379310344828 0.7535919540229885 0  0.1875 0.1875 0  0.8125 0.8125 0  0.869047619047619 0.375 0  0.1450441919191919 0.6052714646464646 0  0.375 0.8690476190476191 0  0.5526960784313725 0.1825980392156862 0  0.8385416666666666 0.1614583333333334 0  0.1614583333333333 0.8385416666666667 0  0.6736111111111112 0.4652777777777778 0  0.1367521367521368 0.3477564102564102 0  0.6570970491253563 0.8648656830417855 0  0.5102479397556124 0.3386260301221938 0  0.3654513888888889 0.5737847222222222 0  0.6929750044954185 0.1362784921584263 0  0.388576102743835 0.411911725237599 0  0.6091269841269842 0.5942460317460317 0  0.875 0.6875 0  0.427278890279516 0.119889445139758 0  0.8544456845238095 0.5213913690476191 0  0.125 0 0  0 0.125 0  1 0.875 0  0.875 1 0  0.1280008648150532 0.4769292340226777 0  0.2695382451711197 0.3321750950221553 0  0.7031567235715964 0.7447810921428012 0  0.625 0 0  0.375 0 0  0.125 1 0  0.875 0 0  0 0.375 0  0 0.625 0  1 0.375 0  0.375 1 0  1 0.125 0  0 0.875 0  0.625 1 0  1 0.625 0  0.2979288363930608 0.1201429454643536 0  0.410919540229885 0.7484605911330049 0  0.5325041980395562 0.878905151526474 0  0.4831670727569156 0.6331060043826487 0  0.1735997378973042 0.7204747378973043 0  0.2534919507575758 0.5772372159090909 0  0.2633928571428572 0.8876488095238095 0  0.8199404761904761 0.2730654761904762 0  0.75830270586982 0.3919383189517417 0  0.5750282248382511 0.4237522353023667 0  0.6008360210023379 0.2794828358598495 0  0.08163442644334186 0.6821295860397322 0  0.08333333333333333 0.1875 0  0.2028380815996574 0.08844602719988583 0  0.2766521142611967 0.2325436572164097 0  0.90625 0.78125 0  0.890625 0.890625 0  0.7545696325008384 0.8973565441669461 0  0.5625 0.08086590340834317 0  0.09077380952380953 0.09077380952380952 0  0.4610923478694773 0.209034015149656 0  0.7542527598351648 0.5248380520595106 0  0.6459235536037465 0.3619913988405765 0  0.7560381768882634 0.20506142233852 0  0.07073252688172042 0.8125 0  0.0924753097241701 0.9078102849914793 0  0.9292674731182795 0.1875 0  0.9075246902758297 0.09218971500852073 0  0.8125 0.07073252688172045 0  0.2400955776842301 0.7869705776842302 0  0.9121050213379069 0.2781978201831695 0  0.7916878157143976 0.7239689078571988 0  0.9345238095238094 0.4375 0  0.4375 0.9345238095238095 0  0.3725616989755203 0.6651895248862173 0  0.06536271996350887 0.5625 0  0.9348362560379583 0.5625 0  0.456646798987055 0.8277247094351965 0  0.1875 0.9355758238725954 0  0.6169761231634859 0.6939779188977889 0  0.6226854751147515 0.7827911461419014 0  0.3305695598137626 0.7901697871282585 0  0.5865305325818898 0.5101085479043448 0  0.6622701297028378 0.2177663989757395 0  0.1354166666666667 0.2591702279202279 0  0 0.3125 0  0.2094429575680048 0.3936361846162499 0  0.836666296419157 0.607917407161686 0  0.6875 1 0  0.214261555450504 0.6492551722020035 0  0 0.4375 0  0.07731537126068377 0.40625 0  0.3427725432967068 0.4879566233699599 0  0.3550792513951871 0.3331953632609953 0  0.4462473953896857 0.2887834789342508 0  0.4747801464819794 0.417386052030127 0  0.8229836475148948 0.4443292349237342 0  0.7322605135514757 0.8199240278289671 0  0.6756431877205955 0.5468989748126787 0  0.1968419507215863 0.5194573482612496 0  0.3285590277777778 0.9345238095238095 0  0.8125 1 0  0.4198917601920009 0.5134893045331258 0  0.5232405503206691 0.2595791787880157 0  1 0.9375 0  0.1987510870015086 0.3025185951894431 0  0.5625 1 0  0.6005390654136388 0.9228110509230952 0  0.6411254848194414 0.07704872765442942 0  0.3357233162523242 0.1855113224530532 0  0.6730653396610877 0.6393887462324165 0  0.310966987234063 0.6240019765311626 0  0.7368737836204349 0.07457755202327881 0  0.6192316414418171 0.1485238406378594 0  0.5432429670607106 0.678552703844006 0  0.4754371679695679 0.7103946803120881 0  0.07501324890749672 0.3043839897335739 0  0.5358146975860403 0.5688321463205916 0  0.3115271739500156 0.3982137365971444 0  0.3625191397122174 0.0767854603650549 0  0.5024029442563831 0.1264128223758444 0  0.4375 0 0  0.4699946908887376 0.06379961173775725 0  0.9375 0.71875 0  0.9272105898044465 0.635671179608893 0  0.9375 1 0  0.6690971819568612 0.9331530898202766 0  0.1073454944778885 0.7499206387638554 0  0.8699082999280406 0.2232403652524313 0  0.5773118091863964 0.3548027349159383 0  0.1354166666666667 0.1428571428571428 0  0.3125 0 0  0.8241684193077341 0.9257452995055244 0  0.4352314948354036 0.3586940847489378 0  0.4351301473778832 0.5819726043539077 0  0.8073232928518163 0.3419398170341962 0  0.7775949246947366 0.1298519409204575 0  0.6875 0 0  0.7413513991851041 0.457933324954483 0  0.939453125 0.841796875 0  0.5630355154606987 0.8171875156478349 0  0.9345238095238095 0.3461466592368577 0  0.9375 0 0  1 0.0625 0  0.0625 1 0  0 0.9375 0  0.06552178593177167 0.4969053669623468 0  0.1424866619031703 0.4130277709291224 0  0.1275287182444726 0.5422946908002588 0  0.2637686595586339 0.06413888464529549 0  0.2524263535491086 0.1697437503243817 0  0.7367218397988525 0.6888573970660841 0  0.0625 0 0  0 0.0625 0  0.8463594539285995 0.7578283617857982 0  0.3128751192101563 0.2851997374369947 0  0.4015281788351144 0.1806421385113692 0  0.1910251795116588 0.4553332197174453 0  0.287797471442006 0.5222621440543902 0  0.3962628745986055 0.8097380085535307 0  0.3505895299554843 0.7304878890838692 0  0.5019151500495276 0.9356042615328103 0  0.9374389419410134 0.4999931039076005 0  0.3125 1 0  0.1875 1 0  1 0.5625 0  0.4375 1 0  1 0.3125 0  1 0.4375 0  0.8125 0 0  1 0.1875 0  0.5625 0 0  0.1875 0 0  0 0.1875 0  0 0.5625 0  0 0.6875 0  0 0.8125 0  1 0.6875 0  1 0.8125 0  0.8021696218581627 0.6612893947866073 0  0.06154922295426143 0.6239401126946708 0  0.9359375 0.9359375 0  0.4666158024849896 0.7691515918155014 0  0.2318201265217025 0.7064974250277525 0  0.1565954253579966 0.6635489312486841 0  0.1598132503680848 0.7787147500325552 0  0.3146529991605639 0.8510876378205265 0  0.1461873209418733 0.05982804528877814 0  0.06109554988524315 0.2446551776247686 0  0.8054950308560754 0.5564226538848541 0  0.470541749491976 0.8853316336952531 0  0.6948472567465137 0.4042308563372457 0  0.8802828472348889 0.4658893256343853 0  0.6788075634946739 0.7974194205806069 0  0.2155048659603867 0.2428201584940968 0  0.8131223143423806 0.2132171049028394 0  0.4330798005432235 0.6671274900735726 0  0.6015279126162613 0.2187368078743274 0  0.8061636571464289 0.8703766630361714 0  0.7008230445061776 0.3478568388444072 0  0.8638466246958771 0.3147095987735538 0  0.204801534004265 0.8789209409594009 0  0.2449006736431132 0.9424182882803838 0  0.7611268409371427 0.2643056884799992 0  0.7552800864046191 0.7678006649959446 0  0.5983639638906616 0.864113435029236 0  0.1956559506814437 0.577281203577426 0  0.3527670268164207 0.1320469097565204 0  0.7530364577483248 0.3262386077083089 0  0.4535919187979363 0.4690107087451527 0  0.8824869791666666 0.8336588541666666 0  0.8814453125 0.9451171875 0  0.5582987942628019 0.622421666543858 0  0.6817532446064828 0.6939001801354731 0  0.3830295138888889 0.9450968952922078 0  0.4140603937012541 0.05211333372716105 0  0.5535864501303013 0.3060591985391672 0  0.6560130086346878 0.2729726562211558 0  0.890203140221684 0.5948314305427268 0  0.7043857725999024 0.593980890020804 0  0.5105843922695152 0.8016828014338627 0  0.05365910753708378 0.7315110031682004 0  0.616904573672261 0.4621186633436136 0  0.5338511646455415 0.387875898899613 0  0.5231769258947843 0.4477682463140762 0  0.650302973237622 0.7370722302085519 0  0.3927483139621257 0.4662414504529014 0  0.8034595960585199 0.4972538342758211 0  0.7738337841682438 0.9496376207663251 0  0.7193737507158268 0.954685447650112 0  0.482525916480686 0.5528257169991676 0  0.2533501157346781 0.2809495420003238 0  0.3118487924482243 0.5702930126570319 0  0.6257598847669529 0.4104163315430518 0  0.1354166666666667 0.1955605158730158 0  0.04166666666666666 0.15625 0  0.3956448985530264 0.6174149462065157 0  0.8102897701818546 0.3938784238208349 0  0.2641154190013625 0.8344469561943118 0  0.642852220770013 0.5068794586563659 0  0.05271458179508221 0.355846947336007 0  0.7021551360070266 0.8921457280225779 0  0.5692125776683765 0.1328512638850284 0  0.5206162811937602 0.04865158770992991 0  0.6001838442201555 0.04540556991297563 0  0.2597716608242787 0.4118346398477178 0  0.4040584599473195 0.3179589136784675 0  0.1480337679295207 0.8941560631483065 0  0.1344356707112281 0.9466251177415842 0  0.7114696411829317 0.4983917389078826 0  0.7585704698442475 0.5751926345944629 0  0.2189131956390871 0.04022068508159698 0  0.2476935455192043 0.1123642267635843 0  0.185995005654517 0.1365524537205238 0  0.6223414373308711 0.643380839165121 0  0.5732602596637543 0.7190051747306219 0  0.268358222364537 0.6586246524467934 0  0.3265879848129173 0.2369791782191225 0  0.1267095595787346 0.7034787238999181 0  0.1115202922226038 0.6421997933884982 0  0.3128688392940203 0.07260997451790079 0  0.550724900485678 0.9253360991633187 0  0.7142608810459105 0.2384904702214873 0  0.7045869185243887 0.1871826897887429 0  0.890625 0.734375 0  0.953125 0.765625 0  0.2111812642821677 0.8286209446459138 0  0.9590293078204457 0.09375 0  0.953431269039847 0.1435719386408004 0  0.04097069217955424 0.90625 0  0.04656873096015299 0.8564280613591996 0  0.1078743037981226 0.8541621766048062 0  0.8921256962018773 0.1458378233951939 0  0.8521576979194619 0.1084496634207678 0  0.8655663982740958 0.05464346096571447 0  0.04005659640905543 0.09375 0  0.1001448316533417 0.04246776244228261 
[...]
<PointData  Vectors="f_1762525-0"> 
<DataArray  type="Float64"  Name="f_1762525-0"  NumberOfComponents="3" format="ascii">0.0000000000000000e+00 0.0000000000000000e+00 0.0000000000000000e+00  0.0000000000000000e+00 0.0000000000000000e+00 0.0000000000000000e+00  0.0000000000000000e+00 0.0000000000000000e+00 0.0000000000000000e+00  0.0000000000000000e+00 0.0000000000000000e+00 0.0000000000000000e+00  0.0000000000000000e+00 0.0000000000000000e+00 0.0000000000000000e+00  0.0000000000000000e+00 0.0000000000000000e+00 0.0000000000000000e+00  1.0000000000000000e+00 0.0000000000000000e+00 0.0000000000000000e+00  0.0000000000000000e+00 0.0000000000000000e+00 0.0000000000000000e+00  -9.5398013335546983e-02 4.0024218734872580e-02 0.0000000000000000e+00  0.0000000000000000e+00 0.0000000000000000e+00 0.0000000000000000e+00  0.0000000000000000e+00 0.0000000000000000e+00 0.0000000000000000e+00  5.6250000000000000e-01 0.0000000000000000e+00 0.0000000000000000e+00  0.0000000000000000e+00 0.0000000000000000e+00 0.0000000000000000e+00  0.0000000000000000e+00 0.0000000000000000e+00 0.0000000000000000e+00  0.0000000000000000e+00 0.0000000000000000e+00 0.0000000000000000e+00  0.0000000000000000e+00 0.0000000000000000e+00 0.0000000000000000e+00  5.6250000000000000e-01 0.0000000000000000e+00 0.0000000000000000e+00  -7.0884845470363098e-02 -3.7517906323974920e-02 0.0000000000000000e+00  -1.6265403595223014e-02 1.3207001352761347e-01 0.0000000000000000e+00  -5.6256232986244735e-02 2.6214131542897760e-02 0.0000000000000000e+00  -3.8341183365546851e-02 -1.3852902566512851e-01 0.0000000000000000e+00  -4.0761097853525358e-02 8.0125703719714808e-02 0.0000000000000000e+00  -2.7370517726082531e-02 3.0869291451942234e-02 0.0000000000000000e+00  -1.6116965138838160e-02 1.5669485406293419e-02 0.0000000000000000e+00  -3.3735913228203924e-03 -1.8188056092320809e-01 0.0000000000000000e+00  -3.6000303852635043e-02 -7.5975186259456415e-02 0.0000000000000000e+00  -1.2377862428446167e-02 8.3528886000192842e-02 0.0000000000000000e+00  3.6157262672761779e-02 1.3973449701312027e-01 0.0000000000000000e+00  -6.0338173653262064e-02 -3.1088560794841226e-04 0.0000000000000000e+00  -1.9233510344175107e-02 -1.6815185179663857e-02 0.0000000000000000e+00  3.2728362662979476e-04 9.2460452083678646e-02 0.0000000000000000e+00  -9.7549624565670082e-02 -5.3645955495911134e-02 0.0000000000000000e+00  -1.3887991837875651e-02 3.6958286161936492e-02 0.0000000000000000e+00  9.6672540613517391e-02 -7.3641973961923970e-02 0.0000000000000000e+00  -8.8506366855995833e-02 1.5553398361666989e-02 0.0000000000000000e+00  -5.9395833838527173e-02 1.0196185892037796e-01 0.0000000000000000e+00  -3.9355033921997053e-02 -9.9648557652323392e-03 0.0000000000000000e+00  -7.3780290154119535e-02 5.7776033367840533e-02 0.0000000000000000e+00  -8.2118636564591868e-02 -2.8149320662741485e-02 0.0000000000000000e+00  1.7064562387474511e-03 -1.5165351971820429e-01 0.0000000000000000e+00  -3.8357697598365235e-02 5.8030478511865583e-03 0.0000000000000000e+00  -4.2235946447673194e-02 -1.3100767394063659e-01 0.0000000000000000e+00  0.0000000000000000e+00 0.0000000000000000e+00 0.0000000000000000e+00  0.0000000000000000e+00 0.0000000000000000e+00 0.0000000000000000e+00  0.0000000000000000e+00 0.0000000000000000e+00 0.0000000000000000e+00  1.9140625000000000e-01 0.0000000000000000e+00 0.0000000000000000e+00  -1.2825403776711170e-02 5.7647471813186649e-02 0.0000000000000000e+00  -4.1743863134771853e-02 4.7891462539906345e-02 0.0000000000000000e+00  -3.7606461610046431e-02 -1.2424341384207377e-01 0.0000000000000000e+00  0.0000000000000000e+00 0.0000000000000000e+00 0.0000000000000000e+00  0.0000000000000000e+00 0.0000000000000000e+00 0.0000000000000000e+00  1.9140625000000000e-01 0.0000000000000000e+00 0.0000000000000000e+00  0.0000000000000000e+00 0.0000000000000000e+00 0.0000000000000000e+00  0.0000000000000000e+00 0.0000000000000000e+00 0.0000000000000000e+00  0.0000000000000000e+00 0.0000000000000000e+00 0.0000000000000000e+00  0.0000000000000000e+00 0.0000000000000000e+00 0.0000000000000000e+00  8.7890625000000000e-01 0.0000000000000000e+00 0.0000000000000000e+00  0.0000000000000000e+00 0.0000000000000000e+00 0.0000000000000000e+00  0.0000000000000000e+00 0.0000000000000000e+00 0.0000000000000000e+00  8.7890625000000000e-01 0.0000000000000000e+00 0.0000000000000000e+00  0.0000000000000000e+00 0.0000000000000000e+00 0.0000000000000000e+00  -2.4091004681679511e-02 8.4378361899473779e-03 0.0000000000000000e+00  -1.9192057103568382e-02 1.2421955908322697e-01 0.0000000000000000e+00  1.0848466722240192e-01 3.6193573180929909e-03 0.0000000000000000e+00  -7.0299674447602559e-02 6.6818714114679767e-02 0.0000000000000000e+00  -7.8791282549820710e-03 1.0374448742230964e-01 0.0000000000000000e+00  -3.2853176167063992e-02 1.0605610187041938e-01 0.0000000000000000e+00  2.3835686359103544e-02 1.1900249714222788e-01 0.0000000000000000e+00  -3.8730788760079515e-02 -4.4934444486419610e-02 0.0000000000000000e+00  -7.6976984664845302e-02 -7.3856217328412660e-02 0.0000000000000000e+00  -1.0233335146423538e-01 -1.8144541858646673e-03 0.0000000000000000e+00  -8.0973296517194593e-02 -1.0510081343097945e-02 0.0000000000000000e+00  -4.7111824429824905e-03 6.1648585139355908e-02 0.0000000000000000e+00  -3.6832103843567740e-03 7.6599771709021797e-03 0.0000000000000000e+00  -9.3427265088027091e-03 4.2140674137722258e-03 0.0000000000000000e+00  -3.5559443853969946e-02 2.6572903914858548e-02 0.0000000000000000e+00  4.6848799102409940e-03 -1.7080319962308008e-01 0.0000000000000000e+00  4.0236737296981635e-02 -1.6137173632609836e-01 0.0000000000000000e+00  1.3407466224876533e-01 -1.1935764293192203e-01 0.0000000000000000e+00  -3.1943536537943323e-02 -4.4599732662402021e-04 0.0000000000000000e+00  -1.8612483619934569e-03 1.8662923703383443e-03 0.0000000000000000e+00  -6.1391221675272174e-02 1.1812563600092864e-02 0.0000000000000000e+00  -6.5793990738803612e-02 -1.0811999347221150e-01 0.0000000000000000e+00  -9.3409903767294106e-02 -2.9611352338723834e-02 0.0000000000000000e+00  -4.3390019553112981e-02 -2.5512970433411962e-02 0.0000000000000000e+00  -5.5756879338657332e-03 6.1337873420588690e-02 0.0000000000000000e+00  1.3359444143452655e-03 6.5363010943774738e-02 0.0000000000000000e+00  -5.3353178946955442e-03 -1.2325053992434566e-02 0.0000000000000000e+00  -3.7965062890304609e-03 -3.7021302021701874e-03 0.0000000000000000e+00  -1.0912952417455849e-02 -3.9082082488240775e-03 0.0000000000000000e+00  2.9334183045623442e-03 1.2265269801724506e-01 0.0000000000000000e+00  -1.2716293398876101e-02 -3.3613258427440430e-02 0.0000000000000000e+00  -3.4602177826326054e-02 -1.7239089911690694e-01 0.0000000000000000e+00  -1.5891920303710970e-02 -7.4043662769119861e-02 0.0000000000000000e+00  2.4452066988232193e-01 7.2066377871205026e-02 0.0000000000000000e+00  -4.1494850746602044e-02 1.2125394482439243e-01 0.0000000000000000e+00  -3.8995880419105903e-03 4.2957066789182444e-02 0.0000000000000000e+00  -1.3151432786590575e-02 -1.2400943349012669e-01 0.0000000000000000e+00  1.7550122686584679e-02 1.0450803507330250e-01 0.0000000000000000e+00  3.8374820881617790e-02 8.2775069423438888e-02 0.0000000000000000e+00  -5.0100022922962374e-02 -4.9415325447131536e-02 0.0000000000000000e+00  -2.2853492031113067e-03 -5.5874409974132809e-02 0.0000000000000000e+00  5.9351235461435918e-03 1.4178789602710315e-01 0.0000000000000000e+00  -1.0029789375600033e-01 -6.5681770292205432e-03 0.0000000000000000e+00  -6.2265443907693722e-02 -1.7402119847341562e-02 0.0000000000000000e+00  -1.1626393177241186e-02 2.2026971410990276e-02 0.0000000000000000e+00  0.0000000000000000e+00 0.0000000000000000e+00 0.0000000000000000e+00  -2.9578460152719484e-02 5.8266912402045977e-02 0.0000000000000000e+00  -1.9526734700942509e-02 -1.4333830876838508e-01 0.0000000000000000e+00  7.3852539062500000e-01 0.0000000000000000e+00 0.0000000000000000e+00  -1.8037459723370976e-02 1.1094004137753417e-01 0.0000000000000000e+00  0.0000000000000000e+00 0.0000000000000000e+00 0.0000000000000000e+00  -5.2799466750583076e-03 3.0481373212777715e-02 0.0000000000000000e+00  -6.1902898189737494e-02 8.3721209586848699e-02 0.0000000000000000e+00  -6.1504431212051076e-02 4.4612928439513609e-02 0.0000000000000000e+00  -7.3406580822134193e-02 2.3621986111433464e-02 0.0000000000000000e+00  -9.1453313833985639e-02 3.6871803397144610e-02 0.0000000000000000e+00  -6.1012211688564612e-02 -1.0447685477317428e-01 0.0000000000000000e+00  2.4130247785979553e-02 -1.3882298134155974e-01 0.0000000000000000e+00  -8.2197567091260609e-02 -7.0421095644318046e-02 0.0000000000000000e+00  -2.4974189408514973e-02 8.4295670371506148e-02 0.0000000000000000e+00  1.2634325276893232e-01 1.1169723714552302e-01 0.0000000000000000e+00  3.7133789062500000e-01 0.0000000000000000e+00 0.0000000000000000e+00  -7.9323307553893899e-02 7.3799692028135661e-02 0.0000000000000000e+00  -7.6238816202030601e-02 6.4096514227512729e-03 0.0000000000000000e+00  0.0000000000000000e+00 0.0000000000000000e+00 0.0000000000000000e+00  -2.4641294748575165e-02 3.7125824248761936e-02 0.0000000000000000e+00  9.6899414062499989e-01 0.0000000000000000e+00 0.0000000000000000e+00  2.6347250199884403e-01 -4.6540817647813357e-02 0.0000000000000000e+00  -2.8019968747822397e-02 -2.4693646337203444e-03 0.0000000000000000e+00  -4.0100962471141741e-02 1.7367125536765636e-02 0.0000000000000000e+00  -5.5528631639960579e-02 -9.4072762326987219e-02 0.0000000000000000e+00  -3.8159728086193161e-02 1.1916175686897308e-01 0.0000000000000000e+00  -1.9529864039539397e-02 -4.0953769276733162e-03 0.0000000000000000e+00  -4.9596927847842219e-02 -5.9366169294928495e-03 0.0000000000000000e+00  -6.0262397482807796e-02 2.4294515673180587e-02 0.0000000000000000e+00  -4.3871292550224747e-02 8.1289560005813360e-02 0.0000000000000000e+00  -4.3968803072157690e-03 1.7878092450563741e-02 0.0000000000000000e+00  -8.9969499670430927e-02 2.6879466983282137e-02 0.0000000000000000e+00  -5.4636768152566434e-02 6.3382959443997994e-02 0.0000000000000000e+00  -2.1976843194129292e-02 3.4323610129705835e-03 0.0000000000000000e+00  -4.4856958048738550e-02 2.7005938480376556e-03 0.0000000000000000e+00  0.0000000000000000e+00 0.0000000000000000e+00 0.0000000000000000e+00  -2.4742016835109962e-02 1.2863640445350323e-03 0.0000000000000000e+00  1.4803814560969901e-02 -1.3518628155608925e-01 0.0000000000000000e+00  -1.3978147804092609e-03 -1.4559380932583835e-01 0.0000000000000000e+00  5.4931640625000000e-02 0.0000000000000000e+00 0.0000000000000000e+00  2.7627501261402326e-01 -7.2871800653466809e-02 0.0000000000000000e+00  -5.6112302511146820e-03 7.7687578726363629e-02 0.0000000000000000e+00  -1.8985497499255672e-02 -2.7814609269275412e-02 0.0000000000000000e+00  -9.4829518177329680e-02 -4.5223244740362394e-03 0.0000000000000000e+00  -7.0030031453104120e-03 7.2978965616170982e-03 0.0000000000000000e+00  0.0000000000000000e+00 0.0000000000000000e+00 0.0000000000000000e+00  1.4565066847932617e-01 -1.3737100658428020e-01 0.0000000000000000e+00  -8.0102515850710501e-02 3.7199943247977582e-02 0.0000000000000000e+00  -7.4023667539368398e-02 8.3262968232229673e-02 0.0000000000000000e+00  -5.3778413042977487e-02 -6.6566019589562278e-02 0.0000000000000000e+00  -2.5460204641598871e-02 -1.1920720435996863e-02 0.0000000000000000e+00  0.0000000000000000e+00 0.0000000000000000e+00 0.0000000000000000e+00  -8.5075466144711773e-02 -8.4931032484219099e-02 0.0000000000000000e+00  -1.9122991054998848e-03 -1.2641667151600111e-01 0.0000000000000000e+00  2.5461092801552850e-02 -5.8013834920090284e-03 0.0000000000000000e+00  -1.0477526524583348e-02 -4.3354484421287802e-02 0.0000000000000000e+00  0.0000000000000000e+00 0.0000000000000000e+00 0.0000000000000000e+00  0.0000000000000000e+00 0.0000000000000000e+00 0.0000000000000000e+00  5.4931640625000000e-02 0.0000000000000000e+00 0.0000000000000000e+00  0.0000000000000000e+00 0.0000000000000000e+00 0.0000000000000000e+00  -4.0200145044287251e-03 3.6364552761099025e-02 0.0000000000000000e+00  -1.5596415793852837e-02 5.0184893145918723e-02 0.0000000000000000e+00  -1.1815458511188700e-02 6.8037742127440820e-02 0.0000000000000000e+00  -1.1245851460821249e-02 2.6456017012111074e-03 0.0000000000000000e+00  -2.4527360629649352e-02 1.5226588789342639e-02 0.0000000000000000e+00  -3.8243655365540280e-02 -1.4852093722224546e-01 0.0000000000000000e+00  0.0000000000000000e+00 0.0000000000000000e+00 0.0000000000000000e+00  0.0000000000000000e+00 0.0000000000000000e+00 0.0000000000000000e+00  -1.3386989122468508e-02 -1.8651016881562968e-01 0.0000000000000000e+00  -4.8088280131038920e-02 3.6885495780173992e-02 0.0000000000000000e+00  -4.8901694243929525e-02 1.3632190010282076e-02 0.0000000000000000e+00  -2.5417239965459214e-02 6.9356975224696069e-02 0.0000000000000000e+00  -4.5748521052901184e-02 9.5549569316298280e-02 0.0000000000000000e+00  1.0276289833799598e-02 1.3682820749241609e-01 0.0000000000000000e+00  -1.7016858792989534e-02 1.3632106799053856e-01 0.0000000000000000e+00  3.0481349210005465e-01 1.0962935229493972e-03 0.0000000000000000e+00  -1.6343169383385751e-02 -9.5952525653008283e-02 0.0000000000000000e+00  7.3852539062500000e-01 0.0000000000000000e+00 0.0000000000000000e+00  3.7133789062500000e-01 0.0000000000000000e+00 0.0000000000000000e+00  0.0000000000000000e+00 0.0000000000000000e+00 0.0000000000000000e+00  9.6899414062500011e-01 0.0000000000000000e+00 0.0000000000000000e+00  0.0000000000000000e+00 0.0000000000000000e+00 0.0000000000000000e+00  0.0000000000000000e+00 0.0000000000000000e+00 0.0000000000000000e+00  0.0000000000000000e+00 0.0000000000000000e+00 0.0000000000000000e+00  0.0000000000000000e+00 0.0000000000000000e+00 0.0000000000000000e+00  0.0000000000000000e+00 0.0000000000000000e+00 0.0000000000000000e+00  0.0000000000000000e+00 0.0000000000000000e+00 0.0000000000000000e+00  0.0000000000000000e+00 0.0000000000000000e+00 0.0000000000000000e+00  0.0000000000000000e+00 0.0000000000000000e+00 0.0000000000000000e+00  0.0000000000000000e+00 0.0000000000000000e+00 0.0000000000000000e+00  0.0000000000000000e+00 0.0000000000000000e+00 0.0000000000000000e+00  0.0000000000000000e+00 0.0000000000000000e+00 0.0000000000000000e+00  0.0000000000000000e+00 0.0000000000000000e+00 0.0000000000000000e+00  -2.1733244908749411e-02 -1.6058127536457767e-01 0.0000000000000000e+00  -3.4068565295806686e-03 4.6172186896092371e-02 0.0000000000000000e+00  2.5642649363187685e-02 -8.9948831305751195e-02 0.0000000000000000e+00  -1.6665011093469014e-02 9.3974800020098462e-02 0.0000000000000000e+00  -1.1778137267409642e-02 1.2071281672971571e-01 0.0000000000000000e+00  -1.0786346041521290e-02 9.4289276815961054e-02 0.0000000000000000e+00  -4.0136813532630541e-03 9.8020134012374110e-02 0.0000000000000000e+00  2.4030911436455561e-02 1.3694738872490203e-01 0.0000000000000000e+00  -3.1115570616021683e-03 1.4937133924861721e-03 0.0000000000000000e+00  -2.5794111237448466e-03 9.6818226626178838e-03 0.0000000000000000e+00  -3.8697896386557663e-02 -1.3247768445505992e-01 0.0000000000000000e+00  8.2925692660292441e-02 7.8273401813187163e-02 0.0000000000000000e+00  -9.2755119658248258e-02 -5.4324806980740277e-02 0.0000000000000000e+00  -3.9367408050437584e-02 -1.1062313466914632e-01 0.0000000000000000e+00  8.6904230395025792e-03 -1.0302578014144077e-01 0.0000000000000000e+00  -2.4679633955874108e-02 2.6625102578285813e-02 0.0000000000000000e+00  -3.1663279868544003e-02 -2.8904191646104402e-02 0.0000000000000000e+00  -5.2774898821429612e-02 1.0037638034143985e-01 0.0000000000000000e+00  -6.7749542071759941e-02 -7.9201515708414837e-03 0.0000000000000000e+00  7.5501906582986930e-02 -1.6934104279055759e-01 0.0000000000000000e+00  -8.3334060457260814e-02 -4.6390697117386366e-02 0.0000000000000000e+00  -3.0474578888626921e-02 -5.4959617885294340e-02 0.0000000000000000e+00  1.4196066017646072e-02 9.7991674917588964e-02 0.0000000000000000e+00  8.3134016670539809e-02 9.3073968238583563e-02 0.0000000000000000e+00  -5.3468488480259840e-02 -3.9657328667644473e-02 0.0000000000000000e+00  -2.4178058323655577e-02 -1.6297361689821332e-01 0.0000000000000000e+00  9.7062439531220193e-02 -5.0494823202341894e-02 0.0000000000000000e+00  -2.1617595800625791e-02 9.5192413254882244e-02 0.0000000000000000e+00  -3.3160449511089304e-02 9.3128234381620757e-03 0.0000000000000000e+00  -6.7390611968223033e-02 -5.4603574632756863e-02 0.0000000000000000e+00  -8.8571520945715826e-02 5.3347206850410424e-02 0.0000000000000000e+00  5.7150245109433484e-03 -1.9304201582322378e-01 0.0000000000000000e+00  1.0261497316452363e-01 -9.9373947529661250e-02 0.0000000000000000e+00  -7.7697233348107297e-02 1.1552864205164541e-02 0.0000000000000000e+00  -4.1925407510758614e-02 -1.1131785697314921e-01 0.0000000000000000e+00  2.4982562084088830e-01 8.8298776653259275e-02 0.0000000000000000e+00  -1.8454208550816701e-02 1.3715931006471245e-03 0.0000000000000000e+00  -8.6229970158293825e-02 1.5364425545115056e-03 0.0000000000000000e+00  -7.5207969781700620e-02 -2.3030256742667236e-02 0.0000000000000000e+00  -1.6032113588281337e-02 -1.3968174123773147e-01 0.0000000000000000e+00  -5.9769084387946293e-02 -1.0464247463445200e-01 0.0000000000000000e+00  1.9505130281116706e-03 5.5059390235141177e-02 0.0000000000000000e+00  -3.4681093512133527e-03 4.8191249742049184e-02 0.0000000000000000e+00  -1.0309427003588850e-01 -2.2630005451326006e-02 0.0000000000000000e+00  -9.6743623733503745e-02 1.2666666124869540e-02 0.0000000000000000e+00  -9.9465302733157526e-02 2.2950740778863343e-02 0.0000000000000000e+00  -3.5647545102927912e-02 -8.6384233838924546e-02 0.0000000000000000e+00  -7.5177580473348216e-02 6.9756760698883619e-02 0.0000000000000000e+00  -6.1779253101941350e-02 -1.1676393988907377e-01 0.0000000000000000e+00  2.7429776059090361e-01 -1.0736193584757338e-01 0.0000000000000000e+00  3.3847804286813310e-01 -6.9215701822340561e-02 0.0000000000000000e+00  -8.7250457144500734e-02 5.6291140543389892e-02 0.0000000000000000e+00  -3.4941214448235065e-02 3.6029452604910944e-02 0.0000000000000000e+00  -4.6826085358852701e-02 1.0700438673198336e-01 0.0000000000000000e+00  -1.0095341186729932e-01 -2.4735244669368921e-02 0.0000000000000000e+00  -9.3741839337320235e-03 1.3169346937330082e-02 0.0000000000000000e+00  -8.0540635965129003e-04 2.4011525430827716e-03 0.0000000000000000e+00  -5.8427109070402015e-02 1.0494717243970336e-01 0.0000000000000000e+00  -6.0684476679030652e-02 -8.4788322245503756e-02 0.0000000000000000e+00  1.5097414654842496e-02 1.2557735380575286e-01 0.0000000000000000e+00  -9.6680886227383120e-02 -4.1560761361850850e-02 0.0000000000000000e+00  -2.4724347915284265e-03 1.7325625054217319e-02 0.0000000000000000e+00  1.5649404067400161e-01 -1.1308620791914852e-01 0.0000000000000000e+00  -4.7417905811081996e-02 -1.4605593910906323e-03 0.0000000000000000e+00  -2.0565350741414655e-02 2.8336281200386519e-04 0.0000000000000000e+00  -1.8888096389835830e-02 -5.3065945888408422e-04 0.0000000000000000e+00  -4.1874718596909187e-02 6.6939977698408482e-02 0.0000000000000000e+00  -7.0116793733475041e-02 3.5322737462107713e-02 0.0000000000000000e+00  6.1118616768733296e-03 7.9229742405613576e-02 0.0000000000000000e+00  4.8169006217298978e-02 6.6604834509230285e-02 0.0000000000000000e+00  -8.5435806686374155e-02 -8.0160493839061195e-02 0.0000000000000000e+00  -4.6812094825914835e-02 -1.2681648192266581e-01 0.0000000000000000e+00  -4.9625104195514030e-03 1.0029438234993803e-03 0.0000000000000000e+00  -1.6804004214083682e-02 7.2691913744689094e-03 0.0000000000000000e+00  -1.2053554327900715e-02 8.7978993850466904e-03 0.0000000000000000e+00  -6.6045314834464741e-02 -4.6786688572506174e-02 0.0000000000000000e+00  -4.3785873078814076e-02 -5.1812872437917252e-03 0.0000000000000000e+00  -2.3990974050678855e-02 1.2278225281961448e-01 0.0000000000000000e+00  -4.5650980412344173e-02 2.6669664929764001e-02 0.0000000000000000e+00  -7.0391548359758438e-03 8.4856784695470658e-02 0.0000000000000000e+00  -7.526285