<?xml version="1.0"?>
<VTKFile type="UnstructuredGrid"  version="0.1"  >
<UnstructuredGrid>
<Piece  NumberOfPoints="4984" NumberOfCells="9710">
<Points>
<DataArray  type="Float64"  NumberOfComponents="3"  format="ascii">0 1 0  0 0 0  1 0 0  1 1 0  0.5 0 0  1 0.5 0  0.5 1 0  0 0.5 0  0.5 0.5 0  0 0.25 0  0.25 0 0  0.25 1 0  0 0.75 0  1 0.25 0  0.75 0 0  1 0.75 0  0.75 1 0  0.7083333333333333 0.2916666666666667 0  0.2916666666666666 0.7083333333333334 0  0.375 0.25 0  0.75 0.625 0  0.2569444444444444 0.4652777777777778 0  0.5366379310344828 0.7535919540229885 0  0.1875 0.1875 0  0.8125 0.8125 0  0.869047619047619 0.375 0  0.1450441919191919 0.6052714646464646 0  0.375 0.8690476190476191 0  0.5526960784313725 0.1825980392156862 0  0.8385416666666666 0.1614583333333334 0  0.1614583333333333 0.8385416666666667 0  0.6736111111111112 0.4652777777777778 0  0.1367521367521368 0.3477564102564102 0  0.6570970491253563 0.8648656830417855 0  0.5102479397556124 0.3386260301221938 0  0.3654513888888889 0.5737847222222222 0  0.6929750044954185 0.1362784921584263 0  0.388576102743835 0.411911725237599 0  0.6091269841269842 0.5942460317460317 0  0.875 0.6875 0  0.427278890279516 0.119889445139758 0  0.8544456845238095 0.5213913690476191 0  0.125 0 0  0 0.125 0  1 0.875 0  0.875 1 0  0.1280008648150532 0.4769292340226777 0  0.2695382451711197 0.3321750950221553 0  0.7031567235715964 0.7447810921428012 0  0.625 0 0  0.375 0 0  0.125 1 0  0.875 0 0  0 0.375 0  0 0.625 0  1 0.375 0  0.375 1 0  1 0.125 0  0 0.875 0  0.625 1 0  1 0.625 0  0.2979288363930608 0.1201429454643536 0  0.410919540229885 0.7484605911330049 0  0.5325041980395562 0.878905151526474 0  0.4831670727569156 0.6331060043826487 0  0.1735997378973042 0.7204747378973043 0  0.2534919507575758 0.5772372159090909 0  0.2633928571428572 0.8876488095238095 0  0.8199404761904761 0.2730654761904762 0  0.75830270586982 0.3919383189517417 0  0.5750282248382511 0.4237522353023667 0  0.6008360210023379 0.2794828358598495 0  0.08163442644334186 0.6821295860397322 0  0.08333333333333333 0.1875 0  0.2028380815996574 0.08844602719988583 0  0.2766521142611967 0.2325436572164097 0  0.90625 0.78125 0  0.890625 0.890625 0  0.7545696325008384 0.8973565441669461 0  0.5625 0.08086590340834317 0  0.09077380952380953 0.09077380952380952 0  0.4610923478694773 0.209034015149656 0  0.7542527598351648 0.5248380520595106 0  0.6459235536037465 0.3619913988405765 0  0.7560381768882634 0.20506142233852 0  0.07073252688172042 0.8125 0  0.0924753097241701 0.9078102849914793 0  0.9292674731182795 0.1875 0  0.9075246902758297 0.09218971500852073 0  0.8125 0.07073252688172045 0  0.2400955776842301 0.7869705776842302 0  0.9121050213379069 0.2781978201831695 0  0.7916878157143976 0.7239689078571988 0  0.9345238095238094 0.4375 0  0.4375 0.9345238095238095 0  0.3725616989755203 0.6651895248862173 0  0.06536271996350887 0.5625 0  0.9348362560379583 0.5625 0  0.456646798987055 0.8277247094351965 0  0.1875 0.9355758238725954 0  0.6169761231634859 0.6939779188977889 0  0.6226854751147515 0.7827911461419014 0  0.3305695598137626 0.7901697871282585 0  0.5865305325818898 0.5101085479043448 0  0.6622701297028378 0.2177663989757395 0  0.1354166666666667 0.2591702279202279 0  0 0.3125 0  0.2094429575680048 0.3936361846162499 0  0.836666296419157 0.607917407161686 0  0.6875 1 0  0.214261555450504 0.6492551722020035 0  0 0.4375 0  0.07731537126068377 0.40625 0  0.3427725432967068 0.4879566233699599 0  0.3550792513951871 0.3331953632609953 0  0.4462473953896857 0.2887834789342508 0  0.4747801464819794 0.417386052030127 0  0.8229836475148948 0.4443292349237342 0  0.7322605135514757 0.8199240278289671 0  0.6756431877205955 0.5468989748126787 0  0.1968419507215863 0.5194573482612496 0  0.3285590277777778 0.9345238095238095 0  0.8125 1 0  0.4198917601920009 0.5134893045331258 0  0.5232405503206691 0.2595791787880157 0  1 0.9375 0  0.1987510870015086 0.3025185951894431 0  0.5625 1 0  0.6005390654136388 0.9228110509230952 0  0.6411254848194414 0.07704872765442942 0  0.3357233162523242 0.1855113224530532 0  0.6730653396610877 0.6393887462324165 0  0.310966987234063 0.6240019765311626 0  0.7368737836204349 0.07457755202327881 0  0.6192316414418171 0.1485238406378594 0  0.5432429670607106 0.678552703844006 0  0.4754371679695679 0.7103946803120881 0  0.07501324890749672 0.3043839897335739 0  0.5358146975860403 0.5688321463205916 0  0.3115271739500156 0.3982137365971444 0  0.3625191397122174 0.0767854603650549 0  0.5024029442563831 0.1264128223758444 0  0.4375 0 0  0.4699946908887376 0.06379961173775725 0  0.9375 0.71875 0  0.9272105898044465 0.635671179608893 0  0.9375 1 0  0.6690971819568612 0.9331530898202766 0  0.1073454944778885 0.7499206387638554 0  0.8699082999280406 0.2232403652524313 0  0.5773118091863964 0.3548027349159383 0  0.1354166666666667 0.1428571428571428 0  0.3125 0 0  0.8241684193077341 0.9257452995055244 0  0.4352314948354036 0.3586940847489378 0  0.4351301473778832 0.5819726043539077 0  0.8073232928518163 0.3419398170341962 0  0.7775949246947366 0.1298519409204575 0  0.6875 0 0  0.7413513991851041 0.457933324954483 0  0.939453125 0.841796875 0  0.5630355154606987 0.8171875156478349 0  0.9345238095238095 0.3461466592368577 0  0.9375 0 0  1 0.0625 0  0.0625 1 0  0 0.9375 0  0.06552178593177167 0.4969053669623468 0  0.1424866619031703 0.4130277709291224 0  0.1275287182444726 0.5422946908002588 0  0.2637686595586339 0.06413888464529549 0  0.2524263535491086 0.1697437503243817 0  0.7367218397988525 0.6888573970660841 0  0.0625 0 0  0 0.0625 0  0.8463594539285995 0.7578283617857982 0  0.3128751192101563 0.2851997374369947 0  0.4015281788351144 0.1806421385113692 0  0.1910251795116588 0.4553332197174453 0  0.287797471442006 0.5222621440543902 0  0.3962628745986055 0.8097380085535307 0  0.3505895299554843 0.7304878890838692 0  0.5019151500495276 0.9356042615328103 0  0.9374389419410134 0.4999931039076005 0  0.3125 1 0  0.1875 1 0  1 0.5625 0  0.4375 1 0  1 0.3125 0  1 0.4375 0  0.8125 0 0  1 0.1875 0  0.5625 0 0  0.1875 0 0  0 0.1875 0  0 0.5625 0  0 0.6875 0  0 0.8125 0  1 0.6875 0  1 0.8125 0  0.8021696218581627 0.6612893947866073 0  0.06154922295426143 0.6239401126946708 0  0.9359375 0.9359375 0  0.4666158024849896 0.7691515918155014 0  0.2318201265217025 0.7064974250277525 0  0.1565954253579966 0.6635489312486841 0  0.1598132503680848 0.7787147500325552 0  0.3146529991605639 0.8510876378205265 0  0.1461873209418733 0.05982804528877814 0  0.06109554988524315 0.2446551776247686 0  0.8054950308560754 0.5564226538848541 0  0.470541749491976 0.8853316336952531 0  0.6948472567465137 0.4042308563372457 0  0.8802828472348889 0.4658893256343853 0  0.6788075634946739 0.7974194205806069 0  0.2155048659603867 0.2428201584940968 0  0.8131223143423806 0.2132171049028394 0  0.4330798005432235 0.6671274900735726 0  0.6015279126162613 0.2187368078743274 0  0.8061636571464289 0.8703766630361714 0  0.7008230445061776 0.3478568388444072 0  0.8638466246958771 0.3147095987735538 0  0.204801534004265 0.8789209409594009 0  0.2449006736431132 0.9424182882803838 0  0.7611268409371427 0.2643056884799992 0  0.7552800864046191 0.7678006649959446 0  0.5983639638906616 0.864113435029236 0  0.1956559506814437 0.577281203577426 0  0.3527670268164207 0.1320469097565204 0  0.7530364577483248 0.3262386077083089 0  0.4535919187979363 0.4690107087451527 0  0.8824869791666666 0.8336588541666666 0  0.8814453125 0.9451171875 0  0.5582987942628019 0.622421666543858 0  0.6817532446064828 0.6939001801354731 0  0.3830295138888889 0.9450968952922078 0  0.4140603937012541 0.05211333372716105 0  0.5535864501303013 0.3060591985391672 0  0.6560130086346878 0.2729726562211558 0  0.890203140221684 0.5948314305427268 0  0.7043857725999024 0.593980890020804 0  0.5105843922695152 0.8016828014338627 0  0.05365910753708378 0.7315110031682004 0  0.616904573672261 0.4621186633436136 0  0.5338511646455415 0.387875898899613 0  0.5231769258947843 0.4477682463140762 0  0.650302973237622 0.7370722302085519 0  0.3927483139621257 0.4662414504529014 0  0.8034595960585199 0.4972538342758211 0  0.7738337841682438 0.9496376207663251 0  0.7193737507158268 0.954685447650112 0  0.482525916480686 0.5528257169991676 0  0.2533501157346781 0.2809495420003238 0  0.3118487924482243 0.5702930126570319 0  0.6257598847669529 0.4104163315430518 0  0.1354166666666667 0.1955605158730158 0  0.04166666666666666 0.15625 0  0.3956448985530264 0.6174149462065157 0  0.8102897701818546 0.3938784238208349 0  0.2641154190013625 0.8344469561943118 0  0.642852220770013 0.5068794586563659 0  0.05271458179508221 0.355846947336007 0  0.7021551360070266 0.8921457280225779 0  0.5692125776683765 0.1328512638850284 0  0.5206162811937602 0.04865158770992991 0  0.6001838442201555 0.04540556991297563 0  0.2597716608242787 0.4118346398477178 0  0.4040584599473195 0.3179589136784675 0  0.1480337679295207 0.8941560631483065 0  0.1344356707112281 0.9466251177415842 0  0.7114696411829317 0.4983917389078826 0  0.7585704698442475 0.5751926345944629 0  0.2189131956390871 0.04022068508159698 0  0.2476935455192043 0.1123642267635843 0  0.185995005654517 0.1365524537205238 0  0.6223414373308711 0.643380839165121 0  0.5732602596637543 0.7190051747306219 0  0.268358222364537 0.6586246524467934 0  0.3265879848129173 0.2369791782191225 0  0.1267095595787346 0.7034787238999181 0  0.1115202922226038 0.6421997933884982 0  0.3128688392940203 0.07260997451790079 0  0.550724900485678 0.9253360991633187 0  0.7142608810459105 0.2384904702214873 0  0.7045869185243887 0.1871826897887429 0  0.890625 0.734375 0  0.953125 0.765625 0  0.2111812642821677 0.8286209446459138 0  0.9590293078204457 0.09375 0  0.953431269039847 0.1435719386408004 0  0.04097069217955424 0.90625 0  0.04656873096015299 0.8564280613591996 0  0.1078743037981226 0.8541621766048062 0  0.8921256962018773 0.1458378233951939 0  0.8521576979194619 0.1084496634207678 0  0.8655663982740958 0.05464346096571447 0  0.04005659640905543 0.09375 0  0.1001448316533417 0.04246776244228261 
[...]
<CellData  Scalars="f_1762207"> 
<DataArray  type="Float64"  Name="f_1762207"  format="ascii">7.6481708223897777e-04   1.7458405497297683e-04   1.5210927413123238e-04   4.1235565963609461e-05   5.8784115524964362e-04   4.6472969582787869e-05   8.6271344072839373e-03   2.4479361059400173e-01   4.7451802333203311e-05   4.8678541529276171e-05   7.2719814005532161e-05   9.9833609117170458e-02   4.2078343056351476e-02   3.9204211445050659e-02   8.0654117388385960e-02   3.8504970313084767e-03   2.2163363107803407e-02   8.0319858880808148e-04   1.6092149655159481e-03   2.7586317109700722e-04   1.4395114448282790e-04   2.7488872725894950e-03   1.2827817955754829e-03   6.0779231255265083e-03   9.1317357278585226e-04   5.7576549595328482e-03   2.2103315380078520e-05   5.5617394462169180e-05   1.1753225824475731e-01   2.8099130825041225e-04   4.5277504540002482e-04   1.1351792979119673e-03   5.0620166790592269e-04   1.5109990684716582e-01   1.2635340302388025e-04   3.9351357271983619e-04   8.5625942782941930e-04   4.8113348635269405e-03   4.7737791505206002e-05   5.2919197621675493e-04   1.0803644213836108e-03   1.2805158279710926e-03   7.1414409283432562e-03   2.3427508778169539e-02   4.7408008139488348e-05   2.2683911453738034e-01   6.7434018880462108e-03   4.3571195624902115e-05   1.9214863282045425e+00   2.2169947808495094e-01   5.3191255088310108e+00   1.6879702412055857e+00   1.0376181592299718e-03   2.3512896198261572e-04   7.2567639631734686e-04   1.4973180193616079e-01   2.2641468950925178e-03   7.0833725452965974e-05   9.0253191540889016e-05   3.0524680164240106e-02   1.3146722611411015e-02   6.3451802415713369e-05   2.0028412406563199e-04   8.8078669768157174e-04   8.1293432636673039e-03   4.5757722137814577e-04   5.2937616795314798e-03   8.1311014363670255e-05   3.7946149079455299e-01   4.5820267296410183e-01   1.1536399017812443e-01   6.7720007345720215e-02   2.4453238268196294e-04   1.3427129978508118e-03   3.0480826084976777e-03   4.4239973044567366e-03   3.3679842472588068e-03   1.4551577616466792e-03   2.8672551091112777e-03   2.2614344523712920e-03   2.1670343746771725e-03   6.2948482816193587e-04   1.4891043736342845e-03   1.8987389873227820e-01   3.3624838555150591e-04   1.3132300005771753e-04   4.9673192195804543e-04   8.5597042596326266e-04   1.6848406244032287e-03   6.5009682822392951e-04   1.1977258479140778e-04   6.2198884397351160e-04   7.5384497298696589e-05   2.1586971049855599e-05   7.4734628482457245e-05   5.3607733799626121e-05   8.7176391230901916e-05   4.4546352402896403e+00   1.3772414354764388e+00   1.0722606970480013e-04   8.6260707219549420e-05   5.6393097895159506e-04   1.7467760135189567e-04   2.1172637116097931e-03   1.2112545679148251e-03   6.6169537938599832e-04   1.2225263766662280e-03   2.4108197895596277e-04   1.1056529402041894e-04   4.3332425874298593e-02   1.1189059558397404e-02   1.1261873977150950e-04   1.1365887875784424e-04   7.3792529587187689e-05   6.6919828716304985e-05   4.4929652122648843e-03   1.4844599761257361e-03   4.1267204593643954e-04   4.6181291148405454e-02   2.4761333429509086e-01   1.0605135776427065e-02   8.3315059813251227e-02   1.0225078421311051e-03   2.2238506903173795e-03   1.0355357278762939e-03   9.1446865019366083e-04   9.8255859990649692e-03   2.2762148193822562e-02   9.9929658948632580e-02   1.3382554472957586e-03   2.2859499603016106e-03   1.8087100613215781e-03   5.7791527676115612e-03   2.8969543439187483e-03   8.6643010643068872e-03   6.6502631117597327e-02   1.9301357810403528e-03   1.3207692005752518e-03   1.4676695280513912e-04   2.4469436399578235e-04   1.4243838625583243e-04   8.0913981375892337e-05   1.9974069067444603e-04   7.6673447864983492e-05   8.7824176054975413e-04   7.4885891714748126e-04   1.9742135640456110e-01   2.0078963905062024e-02   1.8221856151999217e-02   1.1175183708979870e+00   2.4892848479307304e-03   8.8852741337649705e-04   4.3309550650215487e-04   1.4326723659863159e-04   2.8942396509341672e-04   1.1882005407295557e-03   4.5158650116295464e-04   2.0291745480103233e-04   3.6075110104017593e-04   1.4949294660244992e-03   3.6270819715968468e-04   7.3214637574454044e-04   6.6381409643929024e-04   2.2251644554864927e-03   1.7600673499701556e-03   1.9699676746083208e-01   2.2394883332882956e-01   1.9401371823725803e-03   1.3273461031509876e-03   9.9631564831101295e-04   2.8998411073848286e-04   7.0910115465993217e-03   1.4324425454993626e+00   9.5449692681246088e+00   9.8959603370212586e-04   1.6322790112156655e-03   3.7463192940025722e-04   2.1909291551488384e-04   4.1999791858914470e+00   4.1496414177089278e+00   2.6755465133979615e-04   2.4657765423955337e-04   1.8216515811051032e-01   1.0324770446543037e+00   7.6670191942641264e-01   4.9344929677172072e-01   8.2898427121524745e-05   9.5286856517956111e-05   8.6189803444666982e-05   3.2044498938453305e-03   3.6623873063124299e-03   7.7225762993479740e-04   1.7868408330058575e-03   6.5345997561201089e-05   5.2285143830071095e-05   9.0919938065567622e-05   9.7560480277225631e-05   1.9027699517719949e-03   1.3208828474840961e-03   1.2736756205147218e-03   1.4908014459964346e-03   5.8545540937497272e-05   3.2712058336589099e-04   1.4483401917375512e-03   7.3200761952320966e-04   7.1181885199401800e-04   8.5142258702412788e-04   6.8297939696545146e-05   8.8639733245836068e-05   8.1962537894865895e-05   8.8359525333416754e-05   5.8663542906681407e-05   1.0439761477517232e-04   1.4996926424854878e-01   2.0456634853455041e-01   1.3159843847426894e-01   5.5633653409031165e+00   7.2249579890962128e+00   5.0187939340575497e-03   5.1374293713163143e-03   2.3307250446270972e-04   3.6156268731964597e-04   1.2963664428489795e-03   6.3254415077546294e-04   2.3829593378522962e-05   5.8116840092090664e-05   3.9746924451941261e+00   3.3273292171339905e+00   5.2448001494654977e-04   2.0886457024182095e-04   3.1955718192920083e-03   2.6495139431448596e-03   2.1890939559640642e-04   4.9306353843816099e-04   1.4661264019040623e-04   1.3535884283803057e-04   3.3997453412313798e-05   1.7289288810340385e-03   4.4874824977383357e-04   3.0721677037806132e+00   6.7497750911886690e-03   1.6060040315051818e-03   6.0003051120400143e-04   9.0605011946954465e-04   4.8864925067010500e-05   1.0062541940608408e-01   5.1621928108001901e-04   1.4368364055145160e-03   4.3164370971976576e-04   2.6282285462191269e-04   1.2669798214573304e-03   1.2618802092505875e-03   2.1625973951128790e-04   6.0770744909861573e-05   5.6934714589107655e-05   9.8121792031474888e-05   2.6820002536891461e-02   4.6446836598433544e-02   5.3989226457574461e-05   1.8716343159165070e-05   1.0595739116961260e+00   3.0737498808258583e+00   1.6656396662767913e-04   2.2828061013266783e-04   6.9237774441886354e-05   1.2092154246176716e-04   4.8818267152152890e-04   1.1613139734072252e-03   1.6735083101787505e-03   9.8249544622143795e-04   4.2151212014647351e-03   3.6640409778677229e-03   2.0450326378859698e-03   2.3577263472694425e-03   3.4609850367826978e-01   9.9986236466533174e-01   1.6049519620280428e-03   4.8900137094500473e-01   4.3215822617123678e-01   5.3628404583149114e-01   1.4494310129340706e-02   2.1462784109602254e-01   5.7190506839503796e-01   2.8826552276202004e-04   2.2194995382463059e-04   1.0329179439029581e-03   3.0071664180992212e-05   1.3079894932497348e-04   8.2971234325670699e-05   1.3471654398314182e-04   3.7303498585522984e-05   4.5893621931152306e-05   2.2759875677659386e-03   1.9924290817737935e-03   8.4544910260965569e-03   4.4184027908291046e-03   7.0270163439512437e-02   2.6025910060912755e-01   4.6773916424569084e-01   7.9706812250500136e-02   1.0375730528976850e-02   2.9735206562904355e-03   1.9354745529552357e+00   2.0739949292006813e-03   1.0866211647263025e-02   4.5233012018153756e-03   1.8320583034377887e-03   1.3791360898061425e-03   2.0712934795261758e-03   4.9092844230784255e-03   5.0720667596231370e-03   3.2533407106251433e-01   2.3011286069347419e-02   6.8317797996309348e-05   7.9557481141071442e-03   4.3835790725609870e-03   2.6140591542225998e-02   1.6539634336211688e-02   1.6021851654089668e-03   1.3765912347478097e-03   4.5888333395194330e-03   2.7634452045742098e-02   1.0606812588839915e-02   9.6352733204500829e-03   5.4908136026795781e-05   2.0926763839230447e-04   8.4184210351467872e-05   1.8803924523754618e-04   9.1738616314105716e-04   1.0336322124840632e-03   1.9297654754031444e-04   1.5080914270548210e-04   3.4044704643265555e-01   1.0256788035836595e+00   5.6140151404709569e-04   1.7558505509412132e-04   5.5550749332241266e-04   2.8661799278491067e-04   6.7994573886794168e-03   1.0186846743728138e-01   2.8640172337585418e-01   3.6214257835561847e-04   2.6718266833152503e-04   4.5385513258211593e-02   1.2868460106582869e-01   1.3827972203831905e-02   2.0869467645016823e-01   1.8613067233803923e-03   1.6502971203636366e-03   7.8051591045490967e-05   8.2626124592878635e-05   3.6724907246819209e-04   2.3617524387678688e-04   5.9141158151246201e-04   1.0887477788002881e-03   3.7029867974308011e+00   2.5666833821923620e+00   4.8282733443520867e+00   3.9913862090176014e-03   4.3725703343471829e-03   3.6850405966519867e-02   5.2102886120826593e-03   7.1491690160164745e-01   4.8948433123573349e-04   6.2636735230427090e-04   7.8183637740495999e-04   6.1144446829391997e-04   1.8046499735326023e-02   1.6045701919575328e-02   3.6096291964984543e-03   5.5488320186830769e-03   4.6023573205299225e-03   2.5115576165126094e-02   5.4635404734111222e-03   6.6654206140812937e-03   1.1184270930040662e-03   1.4265059823992650e-03   6.3042569666568759e-04   8.9373104355314290e-04   1.5208355803318554e-03   1.0040537079808386e-03   2.3687841982715951e-02   3.1709007950226869e-03   7.2186811735156929e-04   6.1583246556949352e-04   3.5269432650796872e-03   1.8884639500085351e-03   9.7231974574702862e-01   3.0838839118292998e+00   1.9642604322823416e+00   1.4205375585343665e-03   1.4332688753524248e-03   4.7354830020614842e-04   3.5753904119515756e-04   9.5699270826007834e-04   2.5173867794747052e-03   5.9359884367223188e-04   1.0899335044202202e-03   3.1011042263255699e-05   6.4386910679874274e-05   4.2994347584803606e-05   7.5644679498680151e-05   1.2347244409457385e-03   1.9360128690722558e-03   1.1271879552533005e-03   1.3280593609485858e-03   9.7171338072276989e-03   4.7614503231989992e-03   2.1219160383699957e-03   1.6989141499502509e-03   2.4029349843009983e-04   1.2104065113851409e-04   1.9397273972800846e-01   7.7364617977546779e-01   1.1437330552453143e-04   7.5582635865540528e-05   5.1226353665249871e-05   4.3718556261240721e-05   7.1276865686112725e-04   5.5765680638772863e-04   3.4797115339328931e-04   2.2028872991271896e-04   1.6565913052987494e-02   1.2794106951314603e-02   4.0116947099534972e-01   1.6042902666616868e-03   2.2290318694748699e-03   3.2438275135539779e-03   4.6046336726494972e-03   3.8189417339128665e-05   4.3220606391659626e-05   7.0386522917344855e-05   4.4552095258155120e-05   3.7354385267874774e-05   5.0144682872006608e-05   1.6523076019513776e-03   2.6831858784982228e-03   3.5592404054256123e-03   1.8749161833664875e-03   3.6247587913657018e-03   1.5920654190586542e-03   1.9400537591149824e-04   2.2230745251979427e-04   2.2459237503613945e-03   5.4633571486725728e-03   2.0957163882257559e-03   1.8531413393563002e-03   4.6756782591068261e-05   4.7027079124087188e-05   2.1947719228348272e-02   1.5067359514811710e-01   2.4403170406402095e-04   2.7289726321107135e-04   1.8945994236377648e-04   1.8629256075049371e-04   1.6969898001128025e+00   3.2313503089522716e-01   7.2025847180844405e-01   4.5919530912077122e-01   4.4295352007923238e-03   3.7001234224993450e-03   9.2413414016543160e-05   7.8199311139229386e-05   5.3011345022461738e-04   2.4243566439380363e-02   1.2571008404274758e-02   1.3148539248921478e-02   1.3944493171527314e-02   8.1833548806025235e-03   1.3984850556805975e-04   9.8432907549632392e-05   7.3207987800996658e-05   7.5520350909445065e-05   1.1269303645906675e-04   6.2762442811420269e-05   2.9469972123522524e-05   2.7794165143386005e-05   1.7910611413346350e-05   2.2421884359765903e-05   8.6943986012021689e-05   1.4053050209106768e-01   1.5325228418641537e-01   9.0727967082137206e-02   1.0934061423911453e-02   9.2874622609488981e-05   3.6048534241906191e-05   2.0746669522633693e-04   1.5544737511017322e-04   1.1243071561206725e-04   1.0125271850155612e-04   2.4826112017942246e-04   2.6797880160433157e-04   1.2628601468218006e-02   4.1934438898578045e-03   1.6349806494197908e-03   1.0334349110573007e-03   6.6803338154341368e-04   8.4234404241678436e-04   1.6923264596262710e-05   4.2427069946979495e-05   1.7020227893467112e-04   3.6679207999593669e-04   4.7603067630177534e-02   4.7473686503071737e-04   1.9750206455582415e-04   3.8578815523702215e+00   2.3223405240547552e+00   2.3436836070000943e-03   2.4601381585953271e-03   2.0406086879613894e-03   6.7740809874226107e-03   3.3680841267163657e-04   5.3594404779476012e-04   8.4169941142726454e-02   7.4354455243047415e-02   1.5543714097788954e-04   1.3478317092789394e-04   1.3729203281975699e-03   1.8429694491353509e-03   5.3726645696811286e-05   7.1090526610974078e-05   6.7770640213874681e-04   4.4267269045568874e-04   2.7216312762412577e-03   2.0932560029862566e-03   1.7691714822161157e-03   2.4642049851992232e-03   1.5435492197476570e-04   1.6139992118865303e-04   6.9987432551965850e-05   7.8965928176601456e-04   1.1136978162695245e-03   2.6132917571740948e-02   4.0068855243391363e-03   2.3037796768960882e-04   2.7172175968348587e-04   2.6275543770941136e-03   6.5789505490729814e-04   8.8800276476657503e-05   9.2641651386345927e-05   7.4092154113786275e-05   7.9885461403624494e-05   1.0045489259514523e-03   1.3928130566518331e-03   1.8589554433577526e-01   2.1441915509153692e-01   3.6632636008236258e-01   8.1280190938063845e-01   4.4332851307027459e-03   3.3454293301471128e-03   9.6087014301325359e-05   9.6243975085247863e-05   3.2870365364544877e-03   3.0424691806187542e-03   5.4097434520218365e-03   3.4465749422489429e-03   7.3573322321631751e-01   2.1851979663735344e-03   1.1922257723600382e-03   7.1348550309760506e-04   3.1620468254091330e-02   6.9250991620838165e-03   2.7890879237896946e-02   1.1470106964624261e-03   5.7127319439743572e-04   3.6902936547388917e-05   3.2825169922190520e-05   6.6459415279762906e-04   8.6022343114930963e-04   3.6092738265345803e-01   5.9178457636059922e-01   5.7365687685822306e-05   5.1814563896865728e-05   6.5775210566142078e-02   1.1611925039368715e-01   2.0646742938088200e-02   1.8366622176114289e-02   1.8931854724551199e-03   1.4627346759544116e-03   1.0603014806264857e+00   5.0292666006464803e-01   1.0260793251272134e-03   1.2387217699232969e-03   5.1195429463550436e-05   6.5665526302014627e-05   3.6435314015420369e-05   6.7321783930902074e-05   2.3886403387185241e-04   3.7519663836345157e-04   4.8586728164553850e-04   1.1332327273070439e-02   5.6997833374635310e-03   2.6149632526950143e-03   1.8290859591547275e-03   6.6120223544323597e-01   1.3004145995483449e-02   6.6691657673177253e-03   4.9471937227512648e-02   1.5793871297024552e-02   2.2768713727914361e-04   1.9425344987054292e-04   8.0242900979012344e+00   3.8051674846059980e-02   9.9260833653039082e-01   1.9362368983654962e-03   1.1976160580116893e-03   8.6427899171022339e-04   1.2613150092691571e-03   7.3114935746408172e+00   5.5388359430669736e+00   2.0244815435962833e-03   1.6403359194157008e-03   6.0157999218009631e-04   6.6711934636958978e-04   3.0616041862025049e-05   3.1123416197410818e-05   8.7315206897399284e-04   6.8437464067728365e-04   2.5941992594831405e+00   3.9883307725420213e-04   3.3478139527777544e-04   3.0758325797536058e-04   7.6584135984586596e-04   3.7107631222178106e-04   2.4347135932985310e-04   6.2290839239189603e-04   4.9364627154919202e-04   1.8154639146817251e-04   3.9906889925433141e-04   3.4393138995478709e-03   2.0247584069013839e-03   2.0060340227720653e-03   1.5312546285577901e-03   2.0594685179599237e-03   1.4078755278283447e-03   1.1751421135030788e-03   5.9212005989194168e-04   1.0069909918981840e-03   2.0010467776725069e-03   1.7497339022519746e-04   1.1641609772704513e-04   2.3297062517594255e-04   1.4156127073655328e-04   6.2099775309429328e-04   2.3226365844560397e-04   3.2631088795178720e-04   6.8625073056668485e-04   1.0026743737604758e-01   3.9661715644581763e-01   1.9698770864371739e-04   1.7833955324404765e-04   7.7036996220199703e-04   5.4819180556919301e-04   4.6904849039750207e-01   8.8019349191676910e-01   1.4920685329520393e-03   2.2592529521753631e-03   2.9998486414953923e-01   1.5561026572961964e-01   2.9520124273977877e-05   2.9665858047069843e-05   2.1013973486943882e-04   1.1958136929792721e-03   1.1823605518394911e-03   8.8808408685788344e-04   8.5272965876108029e-04   1.6349332094199643e-03   6.9903352508717453e-04   1.4795057885794948e-03   6.0963103226235717e-03   2.2197084032148542e+00   1.3342348191467462e-03   3.1067913785230547e-03   3.6459458564143171e-04   2.7160477122719712e-04   4.0382815085854206e-03   2.0413710631550833e-03   1.7406608790756901e-03   2.0972300527919577e-03   8.8877693687848154e-05   2.4041516507617360e-04   5.4015337215610202e-03   3.6013719045373807e-03   2.2056887250793218e-04   1.4022910336163353e-04   1.0502145238508007e-03   7.4934786814357627e-04   1.1415658164494363e-03   1.0422729923467750e-03   3.7141737977414522e+00   1.1447932381223953e+00   1.0581760631532161e-04   1.4004364220301268e-04   1.0241889091216674e-03   9.4731891006612310e-04   1.3396494425156357e-03   1.6589444865716813e-03   3.8192375705450180e-03   2.8278960737705876e-03   2.7203440952193626e-04   6.7315257788530579e-04   1.9471309026099850e-04   1.5499629841879777e-04   3.8678891765468348e-02   5.2856549236942170e-02   5.5896277132134242e-01   4.0865270373302093e-01   1.3721169090931237e-03   6.9589466209856918e-04   1.2793432154994018e-03   1.0448450361151627e-03   7.5648089030560641e-03   2.0350187437753898e-03   3.6106579611648788e-03   4.7454455818636131e-02   8.6277089508300115e-03   1.5344500837651237e-02   6.6460278821591467e-01   3.6293165490537410e-01   2.4626617404334295e-02   1.5353832396162413e-02   5.3990439454212301e-05   1.1550853189074294e-04   1.3617708656705276e-04   1.4139805423254979e-03   1.2989377237472577e-03   6.2751947947193437e-02   1.6254166265857142e-01   3.4138226390758103e-01   1.1910695739557260e+00   9.4730299863207828e-05   8.9048395019672292e-05   1.8705592271416965e-02   3.4030806322853167e-03   5.4026751177753606e-05   6.7142943461193802e-05   6.1118328818561917e-05   4.1091339414312774e-05   1.7797903161633920e-04   2.3994373153963370e-04   5.1156214855237080e-05   7.6724203121384952e-05   3.3082249173298464e-03   1.9668786396160275e-02   4.7385114414437110e-04   4.8379249440078906e-04   9.0689377498071714e-05   7.2502864272979808e-05   5.5873378048148545e+00   6.6765977869236242e+00   3.6068059825297125e-04   1.3222647616880161e-03   3.7275139883463332e-03   4.4303069033580543e-03   2.6407129025906835e-04   4.1028272673894120e-04   8.4370290104571611e-05   7.3620247948929715e-05   9.6855466751261224e-05   1.0448007599960504e-04   1.5269997415849844e-03   1.1198122628003349e-03   3.6054902991862530e-04   3.0620535364899750e-04   2.2228475872197385e-02   4.5502946335351319e-02   5.8681076688491538e-05   5.6717610522110758e-05   2.9567691846756090e+00   3.8610769741724797e+00   6.0922783999639758e-04   8.7616793361763434e-04   3.2055853738523404e-01   5.8838410973372457e-01   2.7911796321577239e-04   1.3780661205364708e-04   1.0164303873418435e-03   1.3459321848246684e-03   2.3881580301268979e-04   2.9215989155613166e-04   1.2331338304942988e-04   7.5148997188512700e-04   1.1935749211328985e-03   1.1326768038133655e-03   1.0013822065117670e-03   1.4582827168756757e-01   1.3131323773786954e-01   6.8742847142745536e-04   7.6934293765741667e-04   4.4553594401256695e-05   2.4624224350076261e-04   7.2769919120199716e-05   1.1253196947806948e-04   1.1851625255166319e-04   1.3072344094463385e-04   5.6147605184716464e-05   5.9868