<?xml version="1.0"?>
<VTKFile type="UnstructuredGrid"  version="0.1"  >
<UnstructuredGrid>
<Piece  NumberOfPoints="3711" NumberOfCells="7164">
<Points>
<DataArray  type="Float64"  NumberOfComponents="3"  format="ascii">0 1 0  0 0 0  1 0 0  1 1 0  0.5 0 0  1 0.5 0  0.5 1 0  0 0.5 0  0.5 0.5 0  0 0.25 0  0.25 0 0  0.25 1 0  0 0.75 0  1 0.25 0  0.75 0 0  1 0.75 0  0.75 1 0  0.7083333333333333 0.2916666666666667 0  0.2916666666666666 0.7083333333333334 0  0.375 0.25 0  0.75 0.625 0  0.2569444444444444 0.4652777777777778 0  0.5366379310344828 0.7535919540229885 0  0.1875 0.1875 0  0.8125 0.8125 0  0.869047619047619 0.375 0  0.1450441919191919 0.6052714646464646 0  0.375 0.8690476190476191 0  0.5526960784313725 0.1825980392156862 0  0.8385416666666666 0.1614583333333334 0  0.1614583333333333 0.8385416666666667 0  0.6736111111111112 0.4652777777777778 0  0.1367521367521368 0.3477564102564102 0  0.6570970491253563 0.8648656830417855 0  0.5102479397556124 0.3386260301221938 0  0.3654513888888889 0.5737847222222222 0  0.6929750044954185 0.1362784921584263 0  0.388576102743835 0.411911725237599 0  0.6091269841269842 0.5942460317460317 0  0.875 0.6875 0  0.427278890279516 0.119889445139758 0  0.8544456845238095 0.5213913690476191 0  0.125 0 0  0 0.125 0  1 0.875 0  0.875 1 0  0.1280008648150532 0.4769292340226777 0  0.2695382451711197 0.3321750950221553 0  0.7031567235715964 0.7447810921428012 0  0.625 0 0  0.375 0 0  0.125 1 0  0.875 0 0  0 0.375 0  0 0.625 0  1 0.375 0  0.375 1 0  1 0.125 0  0 0.875 0  0.625 1 0  1 0.625 0  0.2979288363930608 0.1201429454643536 0  0.410919540229885 0.7484605911330049 0  0.5325041980395562 0.878905151526474 0  0.4831670727569156 0.6331060043826487 0  0.1735997378973042 0.7204747378973043 0  0.2534919507575758 0.5772372159090909 0  0.2633928571428572 0.8876488095238095 0  0.8199404761904761 0.2730654761904762 0  0.75830270586982 0.3919383189517417 0  0.5750282248382511 0.4237522353023667 0  0.6008360210023379 0.2794828358598495 0  0.08163442644334186 0.6821295860397322 0  0.08333333333333333 0.1875 0  0.2028380815996574 0.08844602719988583 0  0.2766521142611967 0.2325436572164097 0  0.90625 0.78125 0  0.890625 0.890625 0  0.7545696325008384 0.8973565441669461 0  0.5625 0.08086590340834317 0  0.09077380952380953 0.09077380952380952 0  0.4610923478694773 0.209034015149656 0  0.7542527598351648 0.5248380520595106 0  0.6459235536037465 0.3619913988405765 0  0.7560381768882634 0.20506142233852 0  0.07073252688172042 0.8125 0  0.0924753097241701 0.9078102849914793 0  0.9292674731182795 0.1875 0  0.9075246902758297 0.09218971500852073 0  0.8125 0.07073252688172045 0  0.2400955776842301 0.7869705776842302 0  0.9121050213379069 0.2781978201831695 0  0.7916878157143976 0.7239689078571988 0  0.9345238095238094 0.4375 0  0.4375 0.9345238095238095 0  0.3725616989755203 0.6651895248862173 0  0.06536271996350887 0.5625 0  0.9348362560379583 0.5625 0  0.456646798987055 0.8277247094351965 0  0.1875 0.9355758238725954 0  0.6169761231634859 0.6939779188977889 0  0.6226854751147515 0.7827911461419014 0  0.3305695598137626 0.7901697871282585 0  0.5865305325818898 0.5101085479043448 0  0.6622701297028378 0.2177663989757395 0  0.1354166666666667 0.2591702279202279 0  0 0.3125 0  0.2094429575680048 0.3936361846162499 0  0.836666296419157 0.607917407161686 0  0.6875 1 0  0.214261555450504 0.6492551722020035 0  0 0.4375 0  0.07731537126068377 0.40625 0  0.3427725432967068 0.4879566233699599 0  0.3550792513951871 0.3331953632609953 0  0.4462473953896857 0.2887834789342508 0  0.4747801464819794 0.417386052030127 0  0.8229836475148948 0.4443292349237342 0  0.7322605135514757 0.8199240278289671 0  0.6756431877205955 0.5468989748126787 0  0.1968419507215863 0.5194573482612496 0  0.3285590277777778 0.9345238095238095 0  0.8125 1 0  0.4198917601920009 0.5134893045331258 0  0.5232405503206691 0.2595791787880157 0  1 0.9375 0  0.1987510870015086 0.3025185951894431 0  0.5625 1 0  0.6005390654136388 0.9228110509230952 0  0.6411254848194414 0.07704872765442942 0  0.3357233162523242 0.1855113224530532 0  0.6730653396610877 0.6393887462324165 0  0.310966987234063 0.6240019765311626 0  0.7368737836204349 0.07457755202327881 0  0.6192316414418171 0.1485238406378594 0  0.5432429670607106 0.678552703844006 0  0.4754371679695679 0.7103946803120881 0  0.07501324890749672 0.3043839897335739 0  0.5358146975860403 0.5688321463205916 0  0.3115271739500156 0.3982137365971444 0  0.3625191397122174 0.0767854603650549 0  0.5024029442563831 0.1264128223758444 0  0.4375 0 0  0.4699946908887376 0.06379961173775725 0  0.9375 0.71875 0  0.9272105898044465 0.635671179608893 0  0.9375 1 0  0.6690971819568612 0.9331530898202766 0  0.1073454944778885 0.7499206387638554 0  0.8699082999280406 0.2232403652524313 0  0.5773118091863964 0.3548027349159383 0  0.1354166666666667 0.1428571428571428 0  0.3125 0 0  0.8241684193077341 0.9257452995055244 0  0.4352314948354036 0.3586940847489378 0  0.4351301473778832 0.5819726043539077 0  0.8073232928518163 0.3419398170341962 0  0.7775949246947366 0.1298519409204575 0  0.6875 0 0  0.7413513991851041 0.457933324954483 0  0.939453125 0.841796875 0  0.5630355154606987 0.8171875156478349 0  0.9345238095238095 0.3461466592368577 0  0.9375 0 0  1 0.0625 0  0.0625 1 0  0 0.9375 0  0.06552178593177167 0.4969053669623468 0  0.1424866619031703 0.4130277709291224 0  0.1275287182444726 0.5422946908002588 0  0.2637686595586339 0.06413888464529549 0  0.2524263535491086 0.1697437503243817 0  0.7367218397988525 0.6888573970660841 0  0.0625 0 0  0 0.0625 0  0.8463594539285995 0.7578283617857982 0  0.3128751192101563 0.2851997374369947 0  0.4015281788351144 0.1806421385113692 0  0.1910251795116588 0.4553332197174453 0  0.287797471442006 0.5222621440543902 0  0.3962628745986055 0.8097380085535307 0  0.3505895299554843 0.7304878890838692 0  0.5019151500495276 0.9356042615328103 0  0.9374389419410134 0.4999931039076005 0  0.3125 1 0  0.1875 1 0  1 0.5625 0  0.4375 1 0  1 0.3125 0  1 0.4375 0  0.8125 0 0  1 0.1875 0  0.5625 0 0  0.1875 0 0  0 0.1875 0  0 0.5625 0  0 0.6875 0  0 0.8125 0  1 0.6875 0  1 0.8125 0  0.8021696218581627 0.6612893947866073 0  0.06154922295426143 0.6239401126946708 0  0.9359375 0.9359375 0  0.4666158024849896 0.7691515918155014 0  0.2318201265217025 0.7064974250277525 0  0.1565954253579966 0.6635489312486841 0  0.1598132503680848 0.7787147500325552 0  0.3146529991605639 0.8510876378205265 0  0.1461873209418733 0.05982804528877814 0  0.06109554988524315 0.2446551776247686 0  0.8054950308560754 0.5564226538848541 0  0.470541749491976 0.8853316336952531 0  0.6948472567465137 0.4042308563372457 0  0.8802828472348889 0.4658893256343853 0  0.6788075634946739 0.7974194205806069 0  0.2155048659603867 0.2428201584940968 0  0.8131223143423806 0.2132171049028394 0  0.4330798005432235 0.6671274900735726 0  0.6015279126162613 0.2187368078743274 0  0.8061636571464289 0.8703766630361714 0  0.7008230445061776 0.3478568388444072 0  0.8638466246958771 0.3147095987735538 0  0.204801534004265 0.8789209409594009 0  0.2449006736431132 0.9424182882803838 0  0.7611268409371427 0.2643056884799992 0  0.7552800864046191 0.7678006649959446 0  0.5983639638906616 0.864113435029236 0  0.1956559506814437 0.577281203577426 0  0.3527670268164207 0.1320469097565204 0  0.7530364577483248 0.3262386077083089 0  0.4535919187979363 0.4690107087451527 0  0.8824869791666666 0.8336588541666666 0  0.8814453125 0.9451171875 0  0.5582987942628019 0.622421666543858 0  0.6817532446064828 0.6939001801354731 0  0.3830295138888889 0.9450968952922078 0  0.4140603937012541 0.05211333372716105 0  0.5535864501303013 0.3060591985391672 0  0.6560130086346878 0.2729726562211558 0  0.890203140221684 0.5948314305427268 0  0.7043857725999024 0.593980890020804 0  0.5105843922695152 0.8016828014338627 0  0.05365910753708378 0.7315110031682004 0  0.616904573672261 0.4621186633436136 0  0.5338511646455415 0.387875898899613 0  0.5231769258947843 0.4477682463140762 0  0.650302973237622 0.7370722302085519 0  0.3927483139621257 0.4662414504529014 0  0.8034595960585199 0.4972538342758211 0  0.7738337841682438 0.9496376207663251 0  0.7193737507158268 0.954685447650112 0  0.482525916480686 0.5528257169991676 0  0.2533501157346781 0.2809495420003238 0  0.3118487924482243 0.5702930126570319 0  0.6257598847669529 0.4104163315430518 0  0.1354166666666667 0.1955605158730158 0  0.04166666666666666 0.15625 0  0.3956448985530264 0.6174149462065157 0  0.8102897701818546 0.3938784238208349 0  0.2641154190013625 0.8344469561943118 0  0.642852220770013 0.5068794586563659 0  0.05271458179508221 0.355846947336007 0  0.7021551360070266 0.8921457280225779 0  0.5692125776683765 0.1328512638850284 0  0.5206162811937602 0.04865158770992991 0  0.6001838442201555 0.04540556991297563 0  0.2597716608242787 0.4118346398477178 0  0.4040584599473195 0.3179589136784675 0  0.1480337679295207 0.8941560631483065 0  0.1344356707112281 0.9466251177415842 0  0.7114696411829317 0.4983917389078826 0  0.7585704698442475 0.5751926345944629 0  0.2189131956390871 0.04022068508159698 0  0.2476935455192043 0.1123642267635843 0  0.185995005654517 0.1365524537205238 0  0.6223414373308711 0.643380839165121 0  0.5732602596637543 0.7190051747306219 0  0.268358222364537 0.6586246524467934 0  0.3265879848129173 0.2369791782191225 0  0.1267095595787346 0.7034787238999181 0  0.1115202922226038 0.6421997933884982 0  0.3128688392940203 0.07260997451790079 0  0.550724900485678 0.9253360991633187 0  0.7142608810459105 0.2384904702214873 0  0.7045869185243887 0.1871826897887429 0  0.890625 0.734375 0  0.953125 0.765625 0  0.2111812642821677 0.8286209446459138 0  0.9590293078204457 0.09375 0  0.953431269039847 0.1435719386408004 0  0.04097069217955424 0.90625 0  0.04656873096015299 0.8564280613591996 0  0.1078743037981226 0.8541621766048062 0  0.8921256962018773 0.1458378233951939 0  0.8521576979194619 0.1084496634207678 0  0.8655663982740958 0.05464346096571447 0  0.04005659640905543 0.09375 0  0.1001448316533417 0.04246776244228261 
[...]
<PointData  Scalars="f_1962589"> 
<DataArray  type="Float64"  Name="f_1962589"  format="ascii">7.8339560880360704e-02  -3.6099368728062672e-06  -2.5938046153397004e-06  3.1633794451648947e-02  -8.8247759735953613e-02  2.1674989743755030e-01  2.3627040507266966e-01  2.0465171818025954e-01  -1.5763038924254005e-01  4.2242939999613996e-02  -3.7946128640492072e-02  -2.3504078204522835e-01  4.6770357435246063e-01  4.3365648529993597e-02  -3.8459240845591734e-02  5.5839859118068003e-01  1.7844144540099607e+00  -5.1119190796319686e-02  2.1167358076760713e-02  -7.5742521526996190e-02  -4.0183627960312260e-02  -4.7976705835856948e-02  -7.6332655590593962e-03  -1.4860314601254842e-02  3.7454708451351182e-01  5.6685050209958350e-02  7.2121556334464473e-02  1.6993952715472155e-01  -7.2363001357179893e-02  -3.5376216789078942e-03  2.0073811131593455e-01  -1.0707317992151137e-01  2.2533497911785990e-02  3.0784300243695789e-01  -1.1567611473379340e-01  -1.0168932378309235e-01  -4.3386252488593131e-02  -1.1266324157021274e-01  -1.4955948458383536e-01  1.8603304473375279e-01  -6.6921909177319161e-02  9.5272725104407166e-02  -4.6807411490259751e-03  4.3641031945754628e-03  6.4485714451727782e-01  1.6001682156849091e+00  5.2432758726815520e-02  -5.0057676643698909e-02  5.5894416890908800e-02  -7.3994158168411386e-02  -7.3357717277115597e-02  -2.5168470185522585e-02  -4.7579316951878109e-03  1.0879739013973291e-01  3.3367164875956112e-01  1.1296938016235446e-01  -1.5030480067860416e-01  4.6624334308433485e-03  5.2589916403711912e-01  7.6822152490032003e-01  3.6277775596391737e-01  -4.6898953734070686e-02  1.6325507115082696e-02  2.1121631880822600e-01  -1.2930109102845197e-01  1.0185148845671549e-01  -2.9716261571951324e-02  1.8804091027043571e-01  4.7734858185248781e-03  -3.0402665895692578e-02  -1.3688339646923964e-01  -8.6393943538576254e-02  1.9605730191644086e-01  1.5210389669571518e-02  -2.4548584896927805e-02  -4.5383706775021550e-02  2.4615206938074338e-01  6.5324847998870728e-01  7.0378824416216490e-01  -6.5708179553073037e-02  -7.6968514479112135e-04  -7.9656853562056290e-02  -4.2374122640583343e-02  -9.4718542767318267e-02  -2.6095104027294237e-02  3.0645253024756508e-01  2.9795493448903182e-01  2.1330216326003664e-02  1.2738579773394535e-04  -1.9342092688986130e-02  1.2148483646114873e-01  4.5035642919419749e-02  8.9237930168606636e-02  1.3518642311742365e-01  9.7339172325047796e-02  -5.8113020321337971e-02  1.5426164385669744e-01  2.3773486246022457e-01  1.2412374507421189e-01  1.1169354478726153e-01  -8.1054271395286620e-02  6.5743202620863389e-02  9.9506445836863494e-02  -1.5613662489014138e-01  -5.7387395689998351e-02  1.0958103765293735e-02  7.1930486453902404e-02  -1.8629475923186624e-02  8.9293953938554729e-02  1.1315068609038530e+00  2.7720425841469987e-02  1.5267773966480946e-01  7.4497537764460289e-02  -9.9365657579387950e-02  -8.5727870700953973e-02  -9.6984135699660051e-02  -1.3676631224726171e-01  3.3708317354626927e-02  3.0340344645798178e-01  -1.1916853888601403e-01  1.4854613111436926e-03  2.4374220814525942e-02  2.3964888123249839e+00  -1.3621379419905630e-01  -9.1783622200949683e-02  3.8292650451488475e-01  -1.4556318678028988e-02  4.9249603354833554e-01  3.6821929079453003e-01  -5.4925901169975068e-02  -5.8248765665238941e-02  -1.0146374661497853e-01  -4.9787653298616168e-02  -3.5722134785002892e-02  -5.8885744402416257e-02  -1.0615751287250572e-01  -5.6648653810325286e-02  4.4611558202920641e-02  -1.6222237178571844e-01  -7.6993791310392648e-02  -5.9947873526996494e-02  -6.9007485317737524e-02  -8.4307360851807164e-02  -7.1161521781499024e-02  3.9394063175621075e-01  2.9580944132308473e-01  1.4956394142666177e-01  5.7002525120558323e-01  1.9559870745556626e-01  1.6434871017870549e-02  -1.1417802602142242e-01  -3.6248971969906193e-03  -5.7032922855026535e-02  1.3409010987071399e+00  -1.1398911804940934e-01  -1.3372119080523684e-01  5.3287102726848464e-03  -2.2847327277538122e-02  -5.7896384645579356e-02  -5.0693027134278132e-02  2.9080253556690688e-01  1.1116060206637046e-01  8.1498404338143857e-02  1.5456475260633164e-03  -1.6253107809447726e-03  4.0013373582628679e-02  4.0924675364071422e-01  1.2136476006278211e-01  2.8488969208674622e-02  7.0113905374507665e-02  -4.0074697623860664e-02  -3.5638673083408706e-02  -7.5848259076171914e-03  1.5781263880713871e-03  -1.4842241064426365e-03  1.6876235824253907e-01  -6.3210783022100495e-02  -6.9496083934945205e-02  -2.2566694590995112e-03  -6.4362939331068778e-02  1.0912750707989391e-01  1.7221295064033679e-02  2.1249725588861529e-01  1.8478272088021030e-01  -2.3548164866416896e-01  -1.4681682444766567e-01  2.8435473571171588e-01  6.7849344105083920e-02  7.4076959630901454e-02  1.5988515536947065e-01  -1.9585390478532159e-02  1.9977525320534706e-02  -8.4633508451046113e-02  -1.9063511335579705e-02  1.9580501389366952e-02  2.6615546640147247e-01  4.0265634158956193e-01  5.2022240456220026e-01  4.5435915483724298e-01  6.5428524337982197e-01  4.1239229745492753e-02  1.9633851991824197e-01  1.5641953467842212e-01  2.9560619033049348e-02  5.1589006884459221e-02  8.4802544892917261e-02  1.5578189205166801e-01  1.6946391722280124e-01  -1.2678595040816089e-02  3.2841267613263489e-02  2.7911123128477384e-02  1.8238420335588171e-01  -7.8927933787805465e-02  1.0402899839377336e-01  1.5093083224293946e-01  -2.3036921936022310e-02  -4.9541902668898971e-03  -8.5440917130754912e-02  -7.2022242192642263e-02  7.1750235700261278e-01  -6.3941588935568963e-02  3.5409489976289107e-02  2.0590840469925348e-01  -1.7660340698370407e-02  -2.4135832034193453e-02  1.6815353999333332e-01  2.3449795036250723e-01  1.5338073328080600e-02  -5.8089890876191472e-02  -3.0472848938174459e-02  -1.4360822784625907e-01  3.1883927260045408e-01  1.4143102191085999e+00  -1.4710362773490795e-01  -4.6290756006726816e-02  -2.2302848042099289e-02  -6.9145020114594183e-02  -1.0252790169652952e-01  -6.8964618903096617e-02  1.9130954144739534e-01  -9.4102373616910651e-02  7.7082037497055583e-02  2.8989019542462557e-01  -1.3588228724333476e-01  -1.3073573132246530e-01  -1.4884563414833313e-01  -2.9715197407005050e-03  -1.2224789224461366e-01  1.8676463860634505e-02  1.1904384357101168e+00  8.7642162624895603e-01  -1.5543835432643091e-01  -3.9379567633929177e-02  -7.0835548511387153e-02  -1.1739641360323151e-01  2.7658559550053519e-03  1.4113228053050181e-02  -1.0122444986709668e-01  1.3505131915256862e-02  1.6448913922608766e-01  -1.3440816664180502e-01  7.1817845231842953e-02  5.0191046092885183e-01  -6.4875834355151388e-02  -7.3040042032472940e-02  -6.5738975570995353e-02  -4.9580301749585221e-02  -9.6758070550164679e-02  2.3145826874107653e-01  1.7273514326107808e-01  -8.3980409153870950e-02  -3.7612959505954169e-02  -2.9443417187938022e-02  -3.4940726791663552e-02  -1.7632330716595739e-02  -1.2442782419120306e-01  -5.8571294281127229e-02  -3.8180291880287767e-03  -6.1435192288605674e-02  1.3982271391057219e-01  1.2783310262787953e-01  -5.0892358411579068e-02  2.9127619941389549e-01  -4.2699621594539126e-02  -4.2195463354124538e-02  2.2479614864626984e-01  4.8167986996599055e-01  1.7114708730839642e-01  4.3035768541528673e-03  1.2744997832843288e-02  4.0686568468472617e-01  3.9220059587090161e-01  2.6081930352846738e-01  6.3485746394376400e-03  -7.4938933917275321e-03  -9.8016959997688172e-03  4.0211201548417588e-03  -5.1174180399949287e-03  -8.8660873553659517e-04  2.3403850371629259e-01  1.6875320074045586e-01  3.0049399847235244e-05  -4.5122557078569762e-02  -7.4582676389395669e-02  -7.1563807436846816e-02  -7.8811554121399729e-02  2.1453489296171893e-01  -1.2948311807980856e-01  -7.8494196124086035e-02  6.2611007995101190e-03  3.8678870668595294e-02  -2.9609242931504891e-02  3.6653603467692653e-01  6.5681761627592317e-02  2.0016052977223109e-01  1.1050334433062402e-01  7.7696463712838365e-02  -9.5386680046896030e-02  1.7315683894826872e-01  -5.2533633309946065e-02  -1.5101417396286507e-01  -3.2561962312919766e-02  -5.9974858677636486e-03  -2.6532870124733314e-02  -1.7906001478322355e-02  2.5630644159932086e-02  -6.0308645026571274e-02  9.0528771923226031e-02  1.5344604976722320e-01  8.3527053455185712e-02  1.1489144547835567e-01  5.0604583662747997e-02  -5.9754101715871061e-02  -3.4919703887850290e-02  9.8519146546643191e-02  1.9732242779941200e-01  3.0073419584790949e-02  -1.5010564513481315e-02  6.0959787944039688e-02  1.4217570007183727e-01  1.2709434642077527e-01  1.0845448351385244e-01  1.8315093414240943e-01  3.0639656252776082e-01  1.6624852568048504e-01  -9.7056149505132444e-02  -5.7873098123679328e-02  -7.5943036088239935e-02  5.1255004346149557e-01  -4.3590566700882780e-02  3.8589262287408815e-01  1.7362742409554616e-01  -1.5164705364645778e-01  -2.2933446759745110e-01  -9.5760251414111083e-02  -4.8338060741250893e-03  1.7751002623317805e-02  2.3640053122521102e-02  2.8370934447381885e-01  1.4375975876969233e-01  2.3835299526067000e-01  1.7702850032876360e-01  2.7199231861579587e-01  3.0530909360080305e-01  2.4732075579301575e-02  1.0159439292044571e-01  1.1231135624183040e-02  -8.0994082971512449e-02  2.1028810634241988e+00  2.8830369887222701e-01  -1.6300943370933041e-01  2.2750639112170426e-01  7.0792636689841593e-01  -1.2282883921917939e-01  -1.2958279372062118e-01  -1.2452968840386559e-02  -1.2444263050254144e-01  4.1016039295621287e-01  -4.0425527954597862e-02  -6.8704062706120311e-02  -7.8085749960201997e-02  -1.0348564547622405e-01  -8.9575747413487873e-03  -8.0727595917496175e-02  -4.2140164639038392e-02  -1.1742128167705032e-01  8.7711499573180626e-02  -7.9226904109535701e-02  -4.7474101284281020e-02  -8.2931228326057274e-02  -9.1775450789488830e-02  -1.0269390201289649e-01  1.6624186560661469e-01  5.0118884722397491e-02  -9.3773291306155179e-02  2.2974047042757473e-01  -1.6079992291270906e-01  3.0949098507539208e-01  2.5253360173381728e-02  9.8082558021749075e-02  -9.1142777081980823e-03  5.0953539040557320e-02  -1.5015400411602448e-01  6.5107205165116117e-02  4.8476283345975180e-01  -9.6179721263347333e-03  -2.7530386879418015e-02  1.0175752148343185e-03  6.3746924855560355e-02  3.7883153018885965e-02  -3.2546990762776423e-02  1.5388836871302805e-01  -8.0913920147475636e-03  -1.1705855199872549e-01  -2.9271031108718593e-02  -1.8055221002538344e-01  2.8300272655732494e-02  -1.5002606081712558e-01  -1.2399188637826310e-01  6.4711627496227969e-02  -1.1027308506641019e-01  -8.7738034004461798e-02  6.4372293300141464e-02  3.4586975050339835e-01  2.0747838695522176e-02  -1.6961864904826630e-02  8.0352455580993784e-02  -1.4961908223124602e-02  -6.1193862032508303e-02  3.1919581682642062e-01  1.6324239173677529e-01  -4.7587034757085221e-02  9.2496596589743598e-03  -1.4490876464742689e-01  9.9448059354724436e-02  -1.8383915036892742e-01  -6.8089952556254107e-02  1.2472970168875068e-01  -7.1828689183650318e-02  -4.9400167101446311e-02  3.1061818628348836e-02  -5.0435793580704040e-02  2.8376162066271587e-01  -1.2123075617981624e-01  -3.5930995736621361e-02  6.6799050466842247e-01  -6.1208297146644081e-02  -9.0721263063832852e-02  -9.0093248556336547e-02  -6.2706601216996019e-02  -4.1686873709452082e-04  -9.7541072296624523e-02  1.0646668776559533e-01  2.6813551114618900e-01  -1.6026775496657587e-02  3.8256230060401858e-01  6.0761237859517654e-02  -2.3224128280485905e-02  4.1938939427261217e-03  -1.4447513208928181e-01  6.3510800786117996e-02  -6.9869491789743249e-02  8.4601334930508823e-02  3.2272807606526996e-02  1.2511703096872959e-01  5.6452088244515562e-03  -1.1396419102777257e-02  -1.6725203317682517e-02  -6.2118938330693346e-02  -2.6798180974284519e-02  -6.6664058990715216e-02  -5.2429667116908607e-02  -6.8610222025974721e-02  -7.0000143832277206e-02  -6.2655557680483934e-02  -1.2263771628387739e-02  -1.2920733258457431e-01  -2.0953038970987648e-02  -9.3861373502107645e-02  1.2950107391302255e+00  9.9922041629553982e-01  1.7592469611469289e-01  -2.2489931531280843e-02  9.2178461737979200e-01  -6.5927393544587404e-02  -6.7948647631033490e-02  -6.8597582546200228e-02  -2.4753547120704558e-02  1.8828968602332807e-01  -3.9379742376059131e-02  -4.9833971090961431e-02  9.3876259420626010e-02  -1.1231541603906847e-01  9.2438341415146771e-02  2.6769234521484547e-01  -2.7446696613742994e-02  4.8756209325024608e-01  2.6757170727663249e-01  4.2472635179189899e-01  -9.7725228095650110e-03  -1.1662449498042678e-01  -1.4715257496756234e-01  -1.1139038582427556e-02  3.0665546145224709e-02  2.8223038796830604e-02  -4.0894095051299435e-02  -6.5424468297289901e-02  2.0710586000494760e-01  1.4327686298290793e-01  -5.5523119821982207e-02  1.8181072714035900e+00  -6.5614984993542166e-02  1.5041128194140460e-01  -6.9216239387182162e-04  1.7250572374102576e-03  4.4036839743156941e-01  1.4733407129664886e-01  -1.7278866748894817e-01  -2.3909710687556890e-01  -7.4935510834744354e-02  -5.3534222427431798e-02  -1.5704013887872012e-01  6.0769567685332516e-02  1.7674493390023693e-01  5.6787176142798747e-02  -7.9220289741154346e-02  -5.5372752004040994e-02  -7.1940235520792624e-03  -1.2239434035955378e-02  4.0482065301673426e-01  1.4818621674369492e-01  1.0096902085321689e-02  -7.7112698495113166e-02  -8.5558964882316249e-02  -4.4319710529385631e-02  5.7885487598835460e-02  2.8165795098990996e-02  1.2800099826665717e-02  -8.9320935652728462e-03  -7.7935403596135558e-02  4.9957053718737759e-01  3.3441270884935526e-01  4.3100372713049911e-01  -1.0338088507380280e-03  1.6404992678250896e-01  5.1008699909109612e-02  2.3361359286371994e-02  -9.7747729728350233e-02  7.7036828579847705e-01  4.2778521992160801e-01  -1.1741159248286601e-01  -4.1947512547168032e-03  -1.1217605813011006e-01  4.8576358902710237e-01  2.7532041252558503e-01  -1.1898865652731896e-01  -1.2692406086089461e-01  7.0971084329625803e-03  3.2002933009947138e-01  5.0512471817429391e-02  9.5204577310357461e-02  -6.2703494366519771e-02  3.7660736086228906e-02  1.1917762123368868e-01  -9.2593275011490141e-03  5.7177301401260920e-03  -4.0059468235714669e-03  -4.5426282602172349e-03  3.5768908500427755e-04  -8.3584094311262139e-02  8.9380895163866006e-02  2.5372451384006530e-03  5.2295708293062140e-02  3.3678058932898203e-01  -5.6115071289248301e-02  -7.0088151327577161e-02  1.8002207356734082e-01  1.7490498759478182e-01  -1.4255237035787363e-01  6.9711559775207588e-01  5.5259948424987926e-01  4.0235914595472475e-02  6.6217972629274771e-03  -9.8792132911816488e-02  1.4436855538410706e-01  9.8918891140806237e-02  6.4991553281473560e-02  -8.2474573975725746e-02  6.0789387152784691e-01  -2.6299118549108318e-02  -1.6142195792092989e-01  4.7937753306686287e-02  -4.2812878093990751e-02  -5.3188100818655847e-02  4.9826904667887674e-02  -1.3931805095103345e-01  -7.5074816018223800e-02  1.9021272851012333e-01  -3.4417720532883479e-02  1.0839244090928157e-01  -3.2001157845509019e-02  -3.7862634961722368e-02  -4.4208696219586049e-02  1.5018724397326114e-01  1.3528402281945434e-01  -1.5660892580506827e-01  -1.4004894502072704e-01  6.9131571300460437e-02  2.1864421048185206e-01  7.7842139568413734e-03  1.8796006248845254e-03  1.4973565233487474e-01  -7.9532383644428106e-02  2.0414374539702126e-02  1.9234655311330842e-01  2.2917753216637224e-01  -8.4760437880993161e-02  9.7431576848542367e-01  1.2258776929644660e-01  -9.7986246810485261e-02  1.4124534978658088e-01  2.2800813355072969e-01  1.0840396072401984e-03  -1.1019492037109347e-03  2.4737500748270311e-01  -8.7459673278660319e-02  2.2622036438300899e-01  5.6945777171233118e-04  1.1287416978144180e-02  5.3271535042910989e-01  -1.3087483858116589e-02  -5.2805757038924282e-02  -5.0584329419737582e-02  -1.0536640562777654e-01  -6.6049242975212794e-02  6.8872122289800938e-03  -8.1627174244093131e-02  2.1347113638866739e+00  -9.4418064381317189e-03  -6.4853902783176169e-03  -6.4420473879458942e-02  6.8864659496017305e-02  -6.6569040798715251e-03  1.4225779502420469e-01  -7.7385771861858577e-02  1.1271724187824105e-01  1.3592199091280988e-01  1.3900366395422839e-01  1.7011925394635199e-01  1.7291422598843087e-02  2.2015810521059356e-02  4.6170634337747096e-01  -4.8447259646422457e-02  -1.3460546414400232e-01  5.4214480877050948e-02  2.1012854074568157e-01  2.0832142511671434e-01  3.1426438869906803e-01  1.3537699117730352e-02  1.5993272321139343e-01  3.5213147785898341e-01  3.4627823839972521e-01  -8.7061732567622160e-02  6.8205140159455702e-01  6.2058220784374052e-01  2.2098342612034330e+00  2.5383092619490494e-01  3.3142020152510700e-02  3.7259856079432213e-01  3.6816761305477397e-01  -2.8655307557861759e-01  4.0755502883869799e-01  -4.8380755458818973e-02  -6.6407871139794877e-02  1.8690396912243523e-01  2.5017624075796396e-01  3.2325087627801463e-01  1.2987025724842685e-01  1.7802449460193845e-01  2.3453593114045637e-01  5.6341422607237512e-02  -6.5782663785520945e-02  4.9870599889408002e-01  -2.8739665370987721e-02  4.6438532744153438e-02  -3.9793158326097009e-04  4.9735656089506153e-01  3.1749407471789244e-04  -2.8268697896956001e-02  -8.0136831120339369e-02  3.3474106933211020e-04  1.0906486442141131e-02  1.3884253882743471e+00  1.4455516543646443e-01  5.5883941588996711e-01  1.7911246054342256e-01  -2.2946914087448426e-02  2.9846934297640837e-01  2.9933999779836316e-02  -1.9010647934935040e-01  5.0550182089963080e-01  6.6846023017689882e-01  -2.5959027594069185e-02  1.9324135642894216e-01  -8.4828962929570081e-02  -2.6486067003101121e-01  -8.0960212502960385e-02  1.9110533387434070e-01  -2.4783780473512942e-02  -3.5029038242471930e-02  -2.1253072297301469e-02  2.6131057802089347e-01  -1.7588684327742111e-02  3.5236862641122413e-02  1.8946703527538694e-01  1.7421163496411354e-01  1.7890832375392055e-01  2.5582627986055750e-01  1.4016610113765060e-01  4.0237523173254630e-02  2.3619517353699309e-02  1.1697082421735976e-01  -5.2157986533396268e-04  1.0760009983348214e-01  -3.1193302357835320e-02  2.6936747589274657e-01  1.3879349137241170e-01  -1.3395544932864681e-01  2.5888174080193799e-02  -1.5847331050696001e-01  -9.6301265414007811e-02  -7.1406566844507802e-02  1.0424858424347966e-01  -6.7699357317592412e-02  -1.0668515810079301e-01  1.9879517957886936e-02  -2.4034586180305514e-02  1.0859064511858707e-01  -2.1529504313210355e-02  -1.8902427652985335e-02  4.3660545212287030e-02  3.9980642137983760e-02  -7.1563052861377568e-02  -9.6804018833671596e-02  -7.0255687103530293e-02  1.6298576037941054e-01  -9.7153963743309063e-02  2.4804133135445133e-01  2.4724762465449392e-02  2.0367285280409288e-02  -1.6493025061063822e-02  4.6931892139241406e-02  4.6617240369340222e-02  1.8156764811217616e-01  2.0863614113444437e-01  1.1018765481484817e-01  7.4912012203953091e-02  1.7215109205504614e-01  1.2709283187166617e-01  3.4583524409855743e-01  -1.2492079481961713e-01  1.2950936223730514e-01  -3.8962507856661721e-02  -3.0049935834915598e-02  2.2725072145415795e-01  7.7642323062966520e-02  8.7760750033267776e-02  5.2433718754314337e-02  9.3210491595942496e-02  1.4929736025833434e-01  -1.2706652874383720e-01  5.9678337495092694e-02  1.6906951157558681e-01  2.0170735720761743e-01  1.9314004524234682e-01  1.9584570828183620e-01  2.1597745292876219e-01  4.3780131230033953e-01  -1.4458398175946965e-01  -7.3508101606501591e-02  2.2380159723527551e-01  4.3250291337536835e-02  8.1657204047348622e-02  -5.6784221577829287e-02  -5.0874727130246704e-02  8.8255883692727230e-02  -1.3698229434112213e-01  2.5091134418636402e-01  -3.1501755433723112e-02  -7.3372124074686629e-02  6.8465836117772061e-01  -5.5885256269202566e-03  -1.1072948759653994e-01  -6.9232016885921566e-02  -2.5106072585367708e-03  -2.9276328979569461e-02  -2.2844732565182480e-02  5.3827518233518046e-01  6.9086672595460252e-01  5.5777057222823667e-01  1.9538083980459232e-02  6.9197853680140392e-02  4.1242686919556203e-02  -1.3048348196147538e-01  -1.5873292601034328e-01  -5.2725831527532394e-02  2.5903410864620915e-02  2.2787587198844261e-01  -1.0965503495856406e-01  6.4227711120906075e-03  -8.4864975023872073e-03  1.3152639230941085e-01  8.1441984739270570e-02  -3.346103398624810