<?xml version="1.0"?>
<VTKFile type="UnstructuredGrid"  version="0.1"  >
<UnstructuredGrid>
<Piece  NumberOfPoints="4299" NumberOfCells="8340">
<Points>
<DataArray  type="Float64"  NumberOfComponents="3"  format="ascii">0 1 0  0 0 0  1 0 0  1 1 0  0.5 0 0  1 0.5 0  0.5 1 0  0 0.5 0  0.5 0.5 0  0 0.25 0  0.25 0 0  0.25 1 0  0 0.75 0  1 0.25 0  0.75 0 0  1 0.75 0  0.75 1 0  0.7083333333333333 0.2916666666666667 0  0.2916666666666666 0.7083333333333334 0  0.375 0.25 0  0.75 0.625 0  0.2569444444444444 0.4652777777777778 0  0.5366379310344828 0.7535919540229885 0  0.1875 0.1875 0  0.8125 0.8125 0  0.869047619047619 0.375 0  0.1450441919191919 0.6052714646464646 0  0.375 0.8690476190476191 0  0.5526960784313725 0.1825980392156862 0  0.8385416666666666 0.1614583333333334 0  0.1614583333333333 0.8385416666666667 0  0.6736111111111112 0.4652777777777778 0  0.1367521367521368 0.3477564102564102 0  0.6570970491253563 0.8648656830417855 0  0.5102479397556124 0.3386260301221938 0  0.3654513888888889 0.5737847222222222 0  0.6929750044954185 0.1362784921584263 0  0.388576102743835 0.411911725237599 0  0.6091269841269842 0.5942460317460317 0  0.875 0.6875 0  0.427278890279516 0.119889445139758 0  0.8544456845238095 0.5213913690476191 0  0.125 0 0  0 0.125 0  1 0.875 0  0.875 1 0  0.1280008648150532 0.4769292340226777 0  0.2695382451711197 0.3321750950221553 0  0.7031567235715964 0.7447810921428012 0  0.625 0 0  0.375 0 0  0.125 1 0  0.875 0 0  0 0.375 0  0 0.625 0  1 0.375 0  0.375 1 0  1 0.125 0  0 0.875 0  0.625 1 0  1 0.625 0  0.2979288363930608 0.1201429454643536 0  0.410919540229885 0.7484605911330049 0  0.5325041980395562 0.878905151526474 0  0.4831670727569156 0.6331060043826487 0  0.1735997378973042 0.7204747378973043 0  0.2534919507575758 0.5772372159090909 0  0.2633928571428572 0.8876488095238095 0  0.8199404761904761 0.2730654761904762 0  0.75830270586982 0.3919383189517417 0  0.5750282248382511 0.4237522353023667 0  0.6008360210023379 0.2794828358598495 0  0.08163442644334186 0.6821295860397322 0  0.08333333333333333 0.1875 0  0.2028380815996574 0.08844602719988583 0  0.2766521142611967 0.2325436572164097 0  0.90625 0.78125 0  0.890625 0.890625 0  0.7545696325008384 0.8973565441669461 0  0.5625 0.08086590340834317 0  0.09077380952380953 0.09077380952380952 0  0.4610923478694773 0.209034015149656 0  0.7542527598351648 0.5248380520595106 0  0.6459235536037465 0.3619913988405765 0  0.7560381768882634 0.20506142233852 0  0.07073252688172042 0.8125 0  0.0924753097241701 0.9078102849914793 0  0.9292674731182795 0.1875 0  0.9075246902758297 0.09218971500852073 0  0.8125 0.07073252688172045 0  0.2400955776842301 0.7869705776842302 0  0.9121050213379069 0.2781978201831695 0  0.7916878157143976 0.7239689078571988 0  0.9345238095238094 0.4375 0  0.4375 0.9345238095238095 0  0.3725616989755203 0.6651895248862173 0  0.06536271996350887 0.5625 0  0.9348362560379583 0.5625 0  0.456646798987055 0.8277247094351965 0  0.1875 0.9355758238725954 0  0.6169761231634859 0.6939779188977889 0  0.6226854751147515 0.7827911461419014 0  0.3305695598137626 0.7901697871282585 0  0.5865305325818898 0.5101085479043448 0  0.6622701297028378 0.2177663989757395 0  0.1354166666666667 0.2591702279202279 0  0 0.3125 0  0.2094429575680048 0.3936361846162499 0  0.836666296419157 0.607917407161686 0  0.6875 1 0  0.214261555450504 0.6492551722020035 0  0 0.4375 0  0.07731537126068377 0.40625 0  0.3427725432967068 0.4879566233699599 0  0.3550792513951871 0.3331953632609953 0  0.4462473953896857 0.2887834789342508 0  0.4747801464819794 0.417386052030127 0  0.8229836475148948 0.4443292349237342 0  0.7322605135514757 0.8199240278289671 0  0.6756431877205955 0.5468989748126787 0  0.1968419507215863 0.5194573482612496 0  0.3285590277777778 0.9345238095238095 0  0.8125 1 0  0.4198917601920009 0.5134893045331258 0  0.5232405503206691 0.2595791787880157 0  1 0.9375 0  0.1987510870015086 0.3025185951894431 0  0.5625 1 0  0.6005390654136388 0.9228110509230952 0  0.6411254848194414 0.07704872765442942 0  0.3357233162523242 0.1855113224530532 0  0.6730653396610877 0.6393887462324165 0  0.310966987234063 0.6240019765311626 0  0.7368737836204349 0.07457755202327881 0  0.6192316414418171 0.1485238406378594 0  0.5432429670607106 0.678552703844006 0  0.4754371679695679 0.7103946803120881 0  0.07501324890749672 0.3043839897335739 0  0.5358146975860403 0.5688321463205916 0  0.3115271739500156 0.3982137365971444 0  0.3625191397122174 0.0767854603650549 0  0.5024029442563831 0.1264128223758444 0  0.4375 0 0  0.4699946908887376 0.06379961173775725 0  0.9375 0.71875 0  0.9272105898044465 0.635671179608893 0  0.9375 1 0  0.6690971819568612 0.9331530898202766 0  0.1073454944778885 0.7499206387638554 0  0.8699082999280406 0.2232403652524313 0  0.5773118091863964 0.3548027349159383 0  0.1354166666666667 0.1428571428571428 0  0.3125 0 0  0.8241684193077341 0.9257452995055244 0  0.4352314948354036 0.3586940847489378 0  0.4351301473778832 0.5819726043539077 0  0.8073232928518163 0.3419398170341962 0  0.7775949246947366 0.1298519409204575 0  0.6875 0 0  0.7413513991851041 0.457933324954483 0  0.939453125 0.841796875 0  0.5630355154606987 0.8171875156478349 0  0.9345238095238095 0.3461466592368577 0  0.9375 0 0  1 0.0625 0  0.0625 1 0  0 0.9375 0  0.06552178593177167 0.4969053669623468 0  0.1424866619031703 0.4130277709291224 0  0.1275287182444726 0.5422946908002588 0  0.2637686595586339 0.06413888464529549 0  0.2524263535491086 0.1697437503243817 0  0.7367218397988525 0.6888573970660841 0  0.0625 0 0  0 0.0625 0  0.8463594539285995 0.7578283617857982 0  0.3128751192101563 0.2851997374369947 0  0.4015281788351144 0.1806421385113692 0  0.1910251795116588 0.4553332197174453 0  0.287797471442006 0.5222621440543902 0  0.3962628745986055 0.8097380085535307 0  0.3505895299554843 0.7304878890838692 0  0.5019151500495276 0.9356042615328103 0  0.9374389419410134 0.4999931039076005 0  0.3125 1 0  0.1875 1 0  1 0.5625 0  0.4375 1 0  1 0.3125 0  1 0.4375 0  0.8125 0 0  1 0.1875 0  0.5625 0 0  0.1875 0 0  0 0.1875 0  0 0.5625 0  0 0.6875 0  0 0.8125 0  1 0.6875 0  1 0.8125 0  0.8021696218581627 0.6612893947866073 0  0.06154922295426143 0.6239401126946708 0  0.9359375 0.9359375 0  0.4666158024849896 0.7691515918155014 0  0.2318201265217025 0.7064974250277525 0  0.1565954253579966 0.6635489312486841 0  0.1598132503680848 0.7787147500325552 0  0.3146529991605639 0.8510876378205265 0  0.1461873209418733 0.05982804528877814 0  0.06109554988524315 0.2446551776247686 0  0.8054950308560754 0.5564226538848541 0  0.470541749491976 0.8853316336952531 0  0.6948472567465137 0.4042308563372457 0  0.8802828472348889 0.4658893256343853 0  0.6788075634946739 0.7974194205806069 0  0.2155048659603867 0.2428201584940968 0  0.8131223143423806 0.2132171049028394 0  0.4330798005432235 0.6671274900735726 0  0.6015279126162613 0.2187368078743274 0  0.8061636571464289 0.8703766630361714 0  0.7008230445061776 0.3478568388444072 0  0.8638466246958771 0.3147095987735538 0  0.204801534004265 0.8789209409594009 0  0.2449006736431132 0.9424182882803838 0  0.7611268409371427 0.2643056884799992 0  0.7552800864046191 0.7678006649959446 0  0.5983639638906616 0.864113435029236 0  0.1956559506814437 0.577281203577426 0  0.3527670268164207 0.1320469097565204 0  0.7530364577483248 0.3262386077083089 0  0.4535919187979363 0.4690107087451527 0  0.8824869791666666 0.8336588541666666 0  0.8814453125 0.9451171875 0  0.5582987942628019 0.622421666543858 0  0.6817532446064828 0.6939001801354731 0  0.3830295138888889 0.9450968952922078 0  0.4140603937012541 0.05211333372716105 0  0.5535864501303013 0.3060591985391672 0  0.6560130086346878 0.2729726562211558 0  0.890203140221684 0.5948314305427268 0  0.7043857725999024 0.593980890020804 0  0.5105843922695152 0.8016828014338627 0  0.05365910753708378 0.7315110031682004 0  0.616904573672261 0.4621186633436136 0  0.5338511646455415 0.387875898899613 0  0.5231769258947843 0.4477682463140762 0  0.650302973237622 0.7370722302085519 0  0.3927483139621257 0.4662414504529014 0  0.8034595960585199 0.4972538342758211 0  0.7738337841682438 0.9496376207663251 0  0.7193737507158268 0.954685447650112 0  0.482525916480686 0.5528257169991676 0  0.2533501157346781 0.2809495420003238 0  0.3118487924482243 0.5702930126570319 0  0.6257598847669529 0.4104163315430518 0  0.1354166666666667 0.1955605158730158 0  0.04166666666666666 0.15625 0  0.3956448985530264 0.6174149462065157 0  0.8102897701818546 0.3938784238208349 0  0.2641154190013625 0.8344469561943118 0  0.642852220770013 0.5068794586563659 0  0.05271458179508221 0.355846947336007 0  0.7021551360070266 0.8921457280225779 0  0.5692125776683765 0.1328512638850284 0  0.5206162811937602 0.04865158770992991 0  0.6001838442201555 0.04540556991297563 0  0.2597716608242787 0.4118346398477178 0  0.4040584599473195 0.3179589136784675 0  0.1480337679295207 0.8941560631483065 0  0.1344356707112281 0.9466251177415842 0  0.7114696411829317 0.4983917389078826 0  0.7585704698442475 0.5751926345944629 0  0.2189131956390871 0.04022068508159698 0  0.2094512238151452 0.1401845482039332 0  0.6223414373308711 0.643380839165121 0  0.5732602596637543 0.7190051747306219 0  0.268358222364537 0.6586246524467934 0  0.3265879848129173 0.2369791782191225 0  0.1267095595787346 0.7034787238999181 0  0.1115202922226038 0.6421997933884982 0  0.3128688392940203 0.07260997451790079 0  0.550724900485678 0.9253360991633187 0  0.7142608810459105 0.2384904702214873 0  0.7045869185243887 0.1871826897887429 0  0.890625 0.734375 0  0.953125 0.765625 0  0.2111812642821677 0.8286209446459138 0  0.9590293078204457 0.09375 0  0.953431269039847 0.1435719386408004 0  0.04097069217955424 0.90625 0  0.04656873096015299 0.8564280613591996 0  0.1078743037981226 0.8541621766048062 0  0.8921256962018773 0.1458378233951939 0  0.8521576979194619 0.1084496634207678 0  0.8655663982740958 0.05464346096571447 0  0.04005659640905543 0.09375 0  0.1001448316533417 0.04246776244228261 0  0.934578184766147 0.05001804220989697
[...]
<PointData  Scalars="f_4733059"> 
<DataArray  type="Float64"  Name="f_4733059"  format="ascii">6.9050646174062036e-02  -3.0977019241523065e-06  -2.6955674080230454e-07  3.4671531292802253e-02  -8.8321009323253846e-02  2.1680601863538862e-01  2.4696157707710834e-01  2.0484588027491074e-01  -1.5784639833343633e-01  4.2282219314040741e-02  -3.7942077988058667e-02  -2.4679555997921904e-01  4.6694245968011766e-01  4.3291975634560546e-02  -3.8550500883117463e-02  5.5482571038336082e-01  1.8284426498660711e+00  -5.1119502400967277e-02  2.1320342835146736e-02  -7.5927294274585513e-02  -3.9035834300531334e-02  -4.7894605766742870e-02  -8.5046192584927096e-03  -1.4863372073693832e-02  3.7325575303441899e-01  5.6926532692662707e-02  7.2443676517935207e-02  1.6961678799031485e-01  -7.2510043778418437e-02  -3.5282690877164566e-03  2.0115249666583851e-01  -1.0693174019142515e-01  2.2536780747735092e-02  3.0600615559603239e-01  -1.1589229121408863e-01  -1.0174360932109996e-01  -4.3481895704160292e-02  -1.1281903604210161e-01  -1.4932456915623926e-01  1.8623724376499351e-01  -6.7095071588176958e-02  9.5672175948355684e-02  -4.6408041805564093e-03  4.3331298018141617e-03  6.5345768920918512e-01  1.6567181262872126e+00  5.2579769181902179e-02  -5.0127486443833691e-02  5.6872271421341818e-02  -7.4033528150778141e-02  -7.3415187808121354e-02  -3.1913796689432013e-02  -4.7457397417654456e-03  1.0887903677225971e-01  3.3356667313520622e-01  1.1267830383205633e-01  -1.5143675209955373e-01  4.4254652439818416e-03  5.2359289313534418e-01  5.3442147430424802e-01  3.6258180468333162e-01  -4.6971000327598378e-02  1.5864612441607050e-02  2.0714824695266146e-01  -1.2960540045007582e-01  1.0251212889474977e-01  -2.9572227994432519e-02  1.8675735748493966e-01  4.8484419161697956e-03  -3.0220842855994169e-02  -1.3705425163917431e-01  -8.6592301144720427e-02  1.9646712959569720e-01  1.5224404577737698e-02  -2.4564869364554195e-02  -4.5497524574409136e-02  2.4930676709980806e-01  6.2972868701037754e-01  7.0235930882334674e-01  -6.5811965783422674e-02  -7.1901910036611971e-04  -7.9848330196934630e-02  -4.1880023068260011e-02  -9.4774547577002793e-02  -2.6132866304458931e-02  3.0758846404523610e-01  2.9792143656889231e-01  2.1370004930649927e-02  1.1267487962744403e-04  -1.9355314036685587e-02  1.2198139908365772e-01  4.5129269366281428e-02  9.0330523260466436e-02  1.3541373369744725e-01  9.9536754345452116e-02  -5.8202358187917740e-02  1.5445205680065457e-01  2.3794048419392982e-01  1.2249456425796502e-01  1.1875183702920963e-01  -8.0157844118266805e-02  6.6111727532461875e-02  9.9579482051399076e-02  -1.5618488918490864e-01  -5.7515508908950581e-02  1.0957560589149004e-02  7.1965504776462269e-02  -1.8575111388091307e-02  8.9777398792094745e-02  1.0475078755629368e+00  2.8041611797614920e-02  1.5281709614425149e-01  7.4630973413548796e-02  -9.9459384968758238e-02  -8.5895842018720969e-02  -9.7211960654475252e-02  -1.3701505112583628e-01  3.3989267184249640e-02  3.0486288338123341e-01  -1.1881006994185167e-01  1.7045665729597675e-03  -8.7505047932804961e-03  2.4197730612469721e+00  -1.3634567974694015e-01  -9.1991464555970445e-02  3.8395438423086736e-01  -1.4593368591305928e-02  4.0896733538716051e-01  3.8454709860328784e-01  -5.5048783437628493e-02  -5.8373786078750191e-02  -1.0071141247123402e-01  -4.9809479257440739e-02  -3.5773950202902222e-02  -5.9035443569618477e-02  -1.0615339624398412e-01  -5.7306250239020376e-02  4.4672654246136104e-02  -1.6233128188423968e-01  -7.7057876152114763e-02  -6.0064477051382348e-02  -6.9210341343013931e-02  -8.4378229351191644e-02  -7.1286979181803337e-02  3.9363795533486406e-01  2.9580030118932593e-01  1.4963926632587082e-01  5.4255601431363476e-01  1.9612136944176778e-01  1.6496026346945820e-02  -1.1433530899832331e-01  -3.6244591754453423e-03  -5.7078771363466424e-02  1.3321625637189174e+00  -1.1417180044804759e-01  -1.3389427599569906e-01  5.4767006854895724e-03  -2.2881525626695674e-02  -5.7873951362069465e-02  -5.0447504911673720e-02  2.8862150530267472e-01  1.0969426169396922e-01  8.1637392068802911e-02  1.5545992010793819e-03  -1.6253655155614539e-03  4.3109902575325910e-02  4.1852147513072729e-01  1.2156781776877305e-01  2.8607598690856568e-02  7.0348534628445702e-02  -4.0116494363050287e-02  -3.5711574464632849e-02  -6.7236624433095089e-03  1.6465391165652766e-03  -1.6566816584788859e-03  1.6749423292177187e-01  -6.3304436171736186e-02  -6.9680866943673939e-02  -2.1694429275261012e-03  -6.4343939382737816e-02  1.0866040386448876e-01  1.7199639512031059e-02  2.1501972623953156e-01  1.8502759141627198e-01  -2.3935208942040939e-01  -1.5888114334412021e-01  2.8458433113502246e-01  5.5049159145873855e-02  7.4044342827725484e-02  1.6010411770812144e-01  -1.9525255300261623e-02  1.9919402337532966e-02  -8.4737419173183268e-02  -1.9083931847330749e-02  1.9561646642249984e-02  2.6640875832268490e-01  4.0466878694556896e-01  5.1876691785961293e-01  4.5371644378826947e-01  6.5269974299573108e-01  4.2084666981329746e-02  1.9654161351167670e-01  1.2618871647979199e-01  2.8257544480469216e-02  5.1951181118130837e-02  8.5264509940686142e-02  1.5627927470674235e-01  1.6988268737256706e-01  -1.2709887709568346e-02  3.2868786528894356e-02  2.8654303645339475e-02  1.7808083332863334e-01  -7.8846473206298867e-02  1.0440083076191650e-01  1.5096250409543482e-01  -2.3062163829651140e-02  -4.9334214833498206e-03  -8.5801077723496724e-02  -7.2185058251939604e-02  7.2170980936409845e-01  -6.3937209532151137e-02  3.5570253427281824e-02  2.0592926253526037e-01  -9.5119880766711511e-03  -2.4125154673109137e-02  1.6898149433151169e-01  2.3343868383594121e-01  1.5559076113622771e-02  -5.8206933069771601e-02  -3.0427714239548799e-02  -1.4383413553295796e-01  3.0807772736252054e-01  1.4313699135663052e+00  -1.4711113909916143e-01  -4.5232201410660075e-02  -3.9091125153664676e-02  -6.9258957920985589e-02  -1.0274773537545341e-01  -6.9090654652652628e-02  1.9174900818701132e-01  -9.3399737270466077e-02  7.5096082115358065e-02  2.9023514495321384e-01  -1.3592617038572594e-01  -1.3096034546911683e-01  -1.4907073266180634e-01  -2.0909855323941293e-03  -1.2241859955657315e-01  1.9082022719518581e-02  1.2088782650966423e+00  8.6199875629186740e-01  -1.5567615637775592e-01  -3.9449073818126811e-02  -7.0785595509138724e-02  -1.1748605844201761e-01  2.7347455843190916e-03  1.4074054931381580e-02  -1.0128079533336182e-01  1.3695145096679353e-02  1.6436388268970889e-01  -1.3431810289302434e-01  7.1891353223978369e-02  4.9903554909432007e-01  -6.4996658838379170e-02  -7.3164720841377415e-02  -6.5828323595630914e-02  -4.9587092923510906e-02  -9.6992725223799675e-02  2.3518207897131146e-01  1.6852824750341888e-01  -8.3634771563445162e-02  -3.6684523444792533e-02  -2.9431877390816250e-02  -2.3993693421157522e-02  -1.2375426265334137e-01  -5.8613022828360388e-02  -3.5850315273564673e-03  -6.1567236365502410e-02  1.4047435784781925e-01  1.2820661053694146e-01  -5.0982312323407344e-02  3.0068632761392239e-01  -4.2747020327755049e-02  -4.2292122348249236e-02  2.2554233407846871e-01  4.7858592630377811e-01  1.7155887830594319e-01  4.3165867579020162e-03  1.2695202240425307e-02  4.0558567827239683e-01  3.9222610590887858e-01  2.6220941344866183e-01  6.3298497519706622e-03  -7.4657097878881107e-03  -9.8025911303568098e-03  3.9996141870022629e-03  -4.9699768481901996e-03  -8.8354352828701665e-04  2.3627673563479934e-01  1.6722242746571422e-01  3.3045221983939076e-05  -4.5201788835954736e-02  -7.4819695787710028e-02  -7.1761146999481662e-02  -7.9010783552180053e-02  2.1542591008762577e-01  -1.2898601487906394e-01  -7.8535082413576804e-02  6.3103636578852127e-03  3.8729053154972805e-02  -2.9612246694919329e-02  3.6620724366188506e-01  6.5676080242318427e-02  1.9828123321453386e-01  1.1094122579297991e-01  7.8100967930009355e-02  -9.5537481466538898e-02  1.7367481297101767e-01  -5.2662407607839107e-02  -1.5087746831865267e-01  -3.4764792022169172e-02  -3.2595686247459843e-02  -5.9810836273021702e-03  -2.6846848356225157e-02  -1.7877831202212403e-02  2.5719995003279660e-02  -6.0405671263975710e-02  9.0789839718026316e-02  1.5039689591952421e-01  8.3647352824887680e-02  1.1506525077084273e-01  5.0701582281685767e-02  -5.9923847562119666e-02  -3.4809000578639317e-02  9.8699176229013683e-02  1.9751985706872754e-01  2.9694448288577723e-02  -1.5042192890631962e-02  6.0753149669546702e-02  1.4241824475405263e-01  1.1716327667053192e-01  1.0868627883112028e-01  1.8332685853954461e-01  3.0641822779623973e-01  1.6664103608683109e-01  -9.7182653396478871e-02  -5.7937079439915030e-02  -7.6039489683623659e-02  5.1046641760120670e-01  -4.3626792829679586e-02  3.8580224654905787e-01  1.7437078647937790e-01  -1.5179415505658658e-01  -2.2724606567351294e-01  -9.5795976009201173e-02  -4.8405178805965357e-03  1.7761014501286657e-02  2.3657818822839561e-02  2.8413007127114703e-01  1.4393374046719198e-01  2.3849458334315132e-01  1.7716857918387782e-01  2.0261804956300289e-01  3.0898035990645989e-01  9.0511971507641863e-03  1.0216203517550278e-01  1.1951504977434803e-02  -8.1176239222419413e-02  2.0948002449450209e+00  2.8655368795088154e-01  -1.6306886926980643e-01  2.2774745354135378e-01  6.9603359087472139e-01  -1.3227901940824001e-02  -1.2250519665537001e-01  -1.2969662675265234e-01  -1.2468859800476620e-01  2.6103899600619168e-01  -4.0441767289599417e-02  -6.8818126878282551e-02  -7.8257612920308028e-02  -1.0365665125801836e-01  -8.9112021066448319e-03  -8.0224751401219763e-02  -4.2623009579314287e-02  -1.1755307213824001e-01  8.7922486997839278e-02  -7.9232959976701489e-02  -4.7548087924017560e-02  -8.3138827077626654e-02  -9.1948404765761632e-02  -1.0296672426117327e-01  1.6626130090379596e-01  5.0238052682184856e-02  -9.3930024526107769e-02  2.2405976556938620e-01  -1.6073628404332765e-01  3.0953074758850424e-01  2.5267652549422440e-02  9.8183955065789988e-02  -8.9040092934119727e-03  5.1118405543704191e-02  -1.5029186113562440e-01  6.5503429294658785e-02  4.3744286940086086e-01  -9.4689236620623621e-03  -2.7504618544935144e-02  1.0410147542804155e-03  6.4080456393233634e-02  3.8249318423791291e-02  -3.2608206223558665e-02  1.5328263324462144e-01  -8.0914780939732867e-03  -1.1717300411057116e-01  -2.9171280693145691e-02  -2.0869771181357585e-01  2.8360313308657167e-02  -1.5021629399452960e-01  -1.2401928848981025e-01  6.3670320272550235e-02  -1.1050726222829220e-01  -8.7929429547895760e-02  6.5835015016813367e-02  3.4483231484975602e-01  2.0913818676923195e-02  -1.6738372068754715e-02  8.0820482113197756e-02  -1.4601366640948752e-02  -5.9870279761662856e-02  3.1861177133805219e-01  1.6398305713251890e-01  -4.7590949555792086e-02  9.2800653374133877e-03  -1.4506188108854937e-01  9.9957546636695621e-02  -1.7758889971975719e-01  -6.8235402062278822e-02  1.2483545101481612e-01  -7.2010793614259244e-02  -4.9392823751606120e-02  3.1147298883376660e-02  -5.0539310545055553e-02  2.8440461852979970e-01  -1.2152237939606414e-01  -3.6020897224653715e-02  6.4539235254956984e-01  -6.1286380201908248e-02  -8.9988373669539323e-02  -9.0299763456011303e-02  -6.2833900900996095e-02  -3.9948697306894590e-04  -9.7949138549903572e-02  1.0662491141945890e-01  2.7103301588439083e-01  -1.6056951043915243e-02  3.8299976302901589e-01  6.0935511843117830e-02  -3.1226984860097774e-02  4.2187094664033163e-03  -1.4464435672541631e-01  6.3585969490752028e-02  -7.0016822063231066e-02  8.4799466598177956e-02  3.2530948029650085e-02  1.2780233861069820e-01  5.7341865490279321e-03  -1.1358759917473616e-02  -1.6735891337200548e-02  -6.2260366313565366e-02  -2.6821117443751600e-02  -6.6825131973794138e-02  -5.2542590177590040e-02  -6.8767853263841869e-02  -7.0174701199619535e-02  -6.3228976752748675e-02  -1.3265322705113375e-02  -1.2943195740680016e-01  -2.0974802147010002e-02  -1.0466171916162356e-01  1.3068142959425602e+00  9.8553421276622966e-01  1.8484442061938425e-01  -2.2397037983196571e-02  7.2023953117409600e-01  -6.6117012484901969e-02  -6.8063313260188996e-02  -6.8550303184928232e-02  1.8884381960126634e-01  -3.9224488593551161e-02  -4.9829560927748769e-02  -1.2870440087386309e-02  9.4600457016668207e-02  -1.1244620016851306e-01  9.2486997986951466e-02  2.6789722917573083e-01  -2.7038059522107867e-02  4.8833530312957868e-01  2.6806795778266818e-01  4.3206257865119613e-01  -9.7761606509705733e-03  -1.1663871433632690e-01  -1.4739670845519751e-01  -1.1108333078889183e-02  3.0630912283146024e-02  2.8223903314575166e-02  -4.1407684326059735e-02  -6.5555259834795668e-02  2.0773615716993410e-01  1.4401255545156430e-01  -5.5396634988958401e-02  1.8457699003288845e+00  -6.5736119241265767e-02  1.4801525935319673e-01  -6.3930666234270539e-04  2.0663327932187088e-03  4.3996934364935425e-01  1.4792769328260491e-01  -1.7925465182784481e-01  -2.3343397735184643e-01  -7.5108559822525053e-02  -5.3632880074859855e-02  -1.5724373393563529e-01  6.0881591927170901e-02  1.7658613799500636e-01  5.6945945780918814e-02  -7.9035751224611317e-02  -5.5262566686620898e-02  -6.2256513461296454e-03  -1.2120470766948230e-02  4.0481771222480500e-01  1.4822206362096896e-01  1.0152354664527533e-02  -7.7158697642573867e-02  -8.5841137418243715e-02  -4.4429558658821734e-02  5.7704424865460575e-02  2.8361389316264210e-02  1.2900446510348305e-02  -8.7952198446931348e-03  -7.8063142267691926e-02  -4.6258479916631420e-03  4.9636047209007977e-01  3.3395673864121039e-01  4.3083158208781652e-01  -1.0332396471395993e-03  1.6356208153531648e-01  5.1162471643159423e-02  2.3512785660648929e-02  -9.7782617185694920e-02  6.6064329030145907e-01  4.3045671892605591e-01  -1.1755247969696837e-01  -4.1849733359247800e-03  -1.1200140989769967e-01  5.0009176481259743e-01  2.5260724544433982e-01  -1.1922145960613573e-01  -1.2712742683942979e-01  7.1352888963182523e-03  3.2021167622948959e-01  4.9242216393447620e-02  9.5036048941521234e-02  -6.2886126115879723e-02  3.8295083104916985e-02  1.1966448302804031e-01  5.7295843990252367e-03  -5.3925457295165439e-03  3.5051890406774820e-04  -8.2691714824562335e-02  8.9439261337508680e-02  2.5704995896551983e-03  5.2370595654293944e-02  3.3660773606849564e-01  -5.6209174390273571e-02  -7.0243058109950948e-02  1.7853536231895858e-01  1.7820583210215385e-01  -1.4229712413484755e-01  -2.6029256144881854e-02  6.8250722308575473e-01  5.5278885327239558e-01  4.0321311344960496e-02  6.8826505649684875e-03  -9.9184982668528876e-02  1.4478936548268134e-01  9.9000028755116418e-02  6.6236630848276259e-02  -8.2608496417959434e-02  6.1358910416564538e-01  -1.6163777206081342e-01  4.8013076236353716e-02  -4.2656747842221329e-02  -5.2380652321708965e-02  5.0009860071639836e-02  -1.3955391234130216e-01  -7.5268124766566080e-02  1.9054768418365706e-01  -3.4257920679723296e-02  1.0864844945645409e-01  -3.2037383142729324e-02  -3.7895228201630292e-02  -4.2283045454340050e-02  1.5033133121712533e-01  1.3506220602370275e-01  -1.5665127157052183e-01  -1.4025829434658013e-01  6.9436042629768907e-02  2.1824792518785802e-01  7.7860561761252120e-03  3.2460769883987813e-03  1.4993802671777945e-01  -7.9715862738352197e-02  2.0455164839752148e-02  1.9116761441657792e-01  2.2855761595423088e-01  -8.4799774843241471e-02  9.8055548485547173e-01  1.2364522460797817e-01  -9.8187308449874680e-02  1.5055551876907278e-01  2.2677261757366879e-01  1.1024312518907791e-03  -1.0974601449848828e-03  2.4735042628795634e-01  -8.7521344988022734e-02  2.4448654432046807e-01  5.9379312926153313e-04  1.1164378353848287e-02  5.3086779842575427e-01  -1.3071635975635272e-02  -5.2888913546841429e-02  -5.0671392124213843e-02  -1.0555977415116771e-01  -6.6211322518293453e-02  6.9151940221456798e-03  -8.1654879933506924e-02  2.1724229420872763e+00  -9.4104692178258089e-03  -6.7461321365353249e-03  -6.4515264557850130e-02  6.9229353675908739e-02  -6.6399072543332294e-03  1.4263141006707927e-01  -7.7587009483169406e-02  1.1164306445527838e-01  1.3644870794513936e-01  1.3923781628223425e-01  1.7041321854867131e-01  1.6961586419502631e-02  2.2134376108633832e-02  4.6301073449414709e-01  -4.8547069910730149e-02  -1.3412027612852850e-01  5.4631140549630010e-02  2.1038817414153518e-01  2.0842058414239520e-01  3.1502555064803550e-01  1.3569385626348773e-02  1.6012755138631679e-01  2.2168571220275324e-01  3.4617315757091061e-01  -8.7269853993243787e-02  6.7646682714685324e-01  4.4858148705387929e-01  2.2435854909755464e+00  2.6380505780634295e-01  2.4946734283438025e-02  3.5690907521941323e-01  3.6825455029560406e-01  -2.8392942267224069e-01  4.0723591809965431e-01  -4.8384701114003073e-02  -6.6440032169848576e-02  1.8697546042071581e-01  2.4985720577048798e-01  3.2314533781715798e-01  1.2995850332888612e-01  1.7819538283443681e-01  2.3477391872993156e-01  5.6360468600378917e-02  -6.5781061404597885e-02  4.9959757697381502e-01  -2.8617238254641551e-02  1.9700156778168665e-02  -3.6108065129658037e-04  4.9335784938904204e-01  1.1470776668296367e-04  -2.8265738717605664e-02  -8.0195368919947177e-02  2.2170633731454021e-04  1.0855898709010183e-02  1.4010391704120748e+00  1.4832797195637704e-01  5.6436867538986979e-01  1.7686741416799026e-01  5.5553274892703123e-03  2.9868997124479429e-01  2.9906886801860100e-02  -1.8749901921155634e-01  5.0373099323220205e-01  6.6971223553650372e-01  -2.5827064679868936e-02  1.8672680455385193e-01  -8.5048857956094959e-02  -2.5568463785533524e-01  -8.1144371386629430e-02  1.8364680141942746e-01  -2.4822557239143835e-02  -3.5106296926676016e-02  -2.0830459741419803e-02  2.6256119434432906e-01  -1.7611722259184150e-02  3.5246720660802887e-02  1.9063269744036637e-01  -1.7942586117755736e-02  1.7443608753192447e-01  1.7936778511008078e-01  2.5614558686282224e-01  1.4038059831557484e-01  4.0317984106863269e-02  2.3631673384275208e-02  1.1728902244223248e-01  4.5804653937791531e-04  1.0784325131497696e-01  -3.1218796596127252e-02  2.6948083849308657e-01  1.3919635566037680e-01  -1.3416036355504538e-01  2.6056382835071119e-02  -3.2719533912267569e-02  -1.5845101269879108e-01  -9.6081750566979360e-02  -7.1572086531658682e-02  1.0408482246978484e-01  -6.7751200930310451e-02  -1.0681777802221371e-01  1.9803060499921268e-02  -2.4066179735468408e-02  1.0880139082159973e-01  -2.1527473737979922e-02  -1.9185352314396806e-02  4.3851921745795212e-02  4.0142045368415355e-02  -7.1520963569021323e-02  -9.6747352442188753e-02  -7.0433904640180206e-02  -4.0142114029324771e-02  1.6225750536291736e-01  -9.6814547650499697e-02  2.4835419983488749e-01  2.5020707550307782e-02  2.0606657709943511e-02  -1.5855612281780014e-02  4.7375321776340788e-02  4.7203937697558207e-02  1.8218308132317251e-01  2.0907776900957464e-01  1.0790423515604892e-01  7.5113427252304216e-02  1.7267699937349806e-01  1.2771956923740757e-01  3.6767673747751661e-01  -1.2506851981866834e-01  1.3032298244198814e-01  -3.8993859524405719e-02  -3.0100531895174063e-02  2.2852469198604700e-01  7.6101399044232590e-02  8.8151215629449886e-02  5.2858133262609075e-02  9.3633051647693491e-02  1.4904830540834110e-01  -1.2730942016376057e-01  5.9128665177592507e-02  1.6614185389914901e-01  1.8666507305348073e-01  1.9831312225750508e-01  1.9658660236005007e-01  2.1689611412925333e-01  4.5564109035330141e-01  -1.4424236098629509e-01  -7.3695803599581375e-02  2.2407623584837097e-01  4.4072187958208234e-02  8.1720989577489356e-02  -5.7173275389009827e-02  -5.0784825922965619e-02  8.8573891872125499e-02  -1.3675868541355254e-01  2.5093231868821386e-01  -7.3513239043891440e-02  6.4079131688800761e-01  -5.0043028764494221e-03  -1.1080307059349753e-01  -6.9373438078365032e-02  -2.4944497896801526e-03  -2.9339415797214212e-02  -2.2830553478897182e-02  5.4484133223821141e-01  6.9143397045369781e-01  5.5706865470101807e-01  1.9639651448549855e-02  6.0618748001134676e-02  4.1552212351676894e-02  -1.3052148795950955e-01  -1.5883418392182178e-01  -5.2813695670301357e-02  2.6063594535738328e-02  2.2761991803378931e-01  -1.0990349640120697e-01  6.6495533464697590e-03  -8.3378853549819516e-03  1.2850550489530507e-01  7.6705512936737635