<?xml version="1.0"?>
<VTKFile type="UnstructuredGrid"  version="0.1"  >
<UnstructuredGrid>
<Piece  NumberOfPoints="3711" NumberOfCells="7164">
<Points>
<DataArray  type="Float64"  NumberOfComponents="3"  format="ascii">0 1 0  0 0 0  1 0 0  1 1 0  0.5 0 0  1 0.5 0  0.5 1 0  0 0.5 0  0.5 0.5 0  0 0.25 0  0.25 0 0  0.25 1 0  0 0.75 0  1 0.25 0  0.75 0 0  1 0.75 0  0.75 1 0  0.7083333333333333 0.2916666666666667 0  0.2916666666666666 0.7083333333333334 0  0.375 0.25 0  0.75 0.625 0  0.2569444444444444 0.4652777777777778 0  0.5366379310344828 0.7535919540229885 0  0.1875 0.1875 0  0.8125 0.8125 0  0.869047619047619 0.375 0  0.1450441919191919 0.6052714646464646 0  0.375 0.8690476190476191 0  0.5526960784313725 0.1825980392156862 0  0.8385416666666666 0.1614583333333334 0  0.1614583333333333 0.8385416666666667 0  0.6736111111111112 0.4652777777777778 0  0.1367521367521368 0.3477564102564102 0  0.6570970491253563 0.8648656830417855 0  0.5102479397556124 0.3386260301221938 0  0.3654513888888889 0.5737847222222222 0  0.6929750044954185 0.1362784921584263 0  0.388576102743835 0.411911725237599 0  0.6091269841269842 0.5942460317460317 0  0.875 0.6875 0  0.427278890279516 0.119889445139758 0  0.8544456845238095 0.5213913690476191 0  0.125 0 0  0 0.125 0  1 0.875 0  0.875 1 0  0.1280008648150532 0.4769292340226777 0  0.2695382451711197 0.3321750950221553 0  0.7031567235715964 0.7447810921428012 0  0.625 0 0  0.375 0 0  0.125 1 0  0.875 0 0  0 0.375 0  0 0.625 0  1 0.375 0  0.375 1 0  1 0.125 0  0 0.875 0  0.625 1 0  1 0.625 0  0.2979288363930608 0.1201429454643536 0  0.410919540229885 0.7484605911330049 0  0.5325041980395562 0.878905151526474 0  0.4831670727569156 0.6331060043826487 0  0.1735997378973042 0.7204747378973043 0  0.2534919507575758 0.5772372159090909 0  0.2633928571428572 0.8876488095238095 0  0.8199404761904761 0.2730654761904762 0  0.75830270586982 0.3919383189517417 0  0.5750282248382511 0.4237522353023667 0  0.6008360210023379 0.2794828358598495 0  0.08163442644334186 0.6821295860397322 0  0.08333333333333333 0.1875 0  0.2028380815996574 0.08844602719988583 0  0.2766521142611967 0.2325436572164097 0  0.90625 0.78125 0  0.890625 0.890625 0  0.7545696325008384 0.8973565441669461 0  0.5625 0.08086590340834317 0  0.09077380952380953 0.09077380952380952 0  0.4610923478694773 0.209034015149656 0  0.7542527598351648 0.5248380520595106 0  0.6459235536037465 0.3619913988405765 0  0.7560381768882634 0.20506142233852 0  0.07073252688172042 0.8125 0  0.0924753097241701 0.9078102849914793 0  0.9292674731182795 0.1875 0  0.9075246902758297 0.09218971500852073 0  0.8125 0.07073252688172045 0  0.2400955776842301 0.7869705776842302 0  0.9121050213379069 0.2781978201831695 0  0.7916878157143976 0.7239689078571988 0  0.9345238095238094 0.4375 0  0.4375 0.9345238095238095 0  0.3725616989755203 0.6651895248862173 0  0.06536271996350887 0.5625 0  0.9348362560379583 0.5625 0  0.456646798987055 0.8277247094351965 0  0.1875 0.9355758238725954 0  0.6169761231634859 0.6939779188977889 0  0.6226854751147515 0.7827911461419014 0  0.3305695598137626 0.7901697871282585 0  0.5865305325818898 0.5101085479043448 0  0.6622701297028378 0.2177663989757395 0  0.1354166666666667 0.2591702279202279 0  0 0.3125 0  0.2094429575680048 0.3936361846162499 0  0.836666296419157 0.607917407161686 0  0.6875 1 0  0.214261555450504 0.6492551722020035 0  0 0.4375 0  0.07731537126068377 0.40625 0  0.3427725432967068 0.4879566233699599 0  0.3550792513951871 0.3331953632609953 0  0.4462473953896857 0.2887834789342508 0  0.4747801464819794 0.417386052030127 0  0.8229836475148948 0.4443292349237342 0  0.7322605135514757 0.8199240278289671 0  0.6756431877205955 0.5468989748126787 0  0.1968419507215863 0.5194573482612496 0  0.3285590277777778 0.9345238095238095 0  0.8125 1 0  0.4198917601920009 0.5134893045331258 0  0.5232405503206691 0.2595791787880157 0  1 0.9375 0  0.1987510870015086 0.3025185951894431 0  0.5625 1 0  0.6005390654136388 0.9228110509230952 0  0.6411254848194414 0.07704872765442942 0  0.3357233162523242 0.1855113224530532 0  0.6730653396610877 0.6393887462324165 0  0.310966987234063 0.6240019765311626 0  0.7368737836204349 0.07457755202327881 0  0.6192316414418171 0.1485238406378594 0  0.5432429670607106 0.678552703844006 0  0.4754371679695679 0.7103946803120881 0  0.07501324890749672 0.3043839897335739 0  0.5358146975860403 0.5688321463205916 0  0.3115271739500156 0.3982137365971444 0  0.3625191397122174 0.0767854603650549 0  0.5024029442563831 0.1264128223758444 0  0.4375 0 0  0.4699946908887376 0.06379961173775725 0  0.9375 0.71875 0  0.9272105898044465 0.635671179608893 0  0.9375 1 0  0.6690971819568612 0.9331530898202766 0  0.1073454944778885 0.7499206387638554 0  0.8699082999280406 0.2232403652524313 0  0.5773118091863964 0.3548027349159383 0  0.1354166666666667 0.1428571428571428 0  0.3125 0 0  0.8241684193077341 0.9257452995055244 0  0.4352314948354036 0.3586940847489378 0  0.4351301473778832 0.5819726043539077 0  0.8073232928518163 0.3419398170341962 0  0.7775949246947366 0.1298519409204575 0  0.6875 0 0  0.7413513991851041 0.457933324954483 0  0.939453125 0.841796875 0  0.5630355154606987 0.8171875156478349 0  0.9345238095238095 0.3461466592368577 0  0.9375 0 0  1 0.0625 0  0.0625 1 0  0 0.9375 0  0.06552178593177167 0.4969053669623468 0  0.1424866619031703 0.4130277709291224 0  0.1275287182444726 0.5422946908002588 0  0.2637686595586339 0.06413888464529549 0  0.2524263535491086 0.1697437503243817 0  0.7367218397988525 0.6888573970660841 0  0.0625 0 0  0 0.0625 0  0.8463594539285995 0.7578283617857982 0  0.3128751192101563 0.2851997374369947 0  0.4015281788351144 0.1806421385113692 0  0.1910251795116588 0.4553332197174453 0  0.287797471442006 0.5222621440543902 0  0.3962628745986055 0.8097380085535307 0  0.3505895299554843 0.7304878890838692 0  0.5019151500495276 0.9356042615328103 0  0.9374389419410134 0.4999931039076005 0  0.3125 1 0  0.1875 1 0  1 0.5625 0  0.4375 1 0  1 0.3125 0  1 0.4375 0  0.8125 0 0  1 0.1875 0  0.5625 0 0  0.1875 0 0  0 0.1875 0  0 0.5625 0  0 0.6875 0  0 0.8125 0  1 0.6875 0  1 0.8125 0  0.8021696218581627 0.6612893947866073 0  0.06154922295426143 0.6239401126946708 0  0.9359375 0.9359375 0  0.4666158024849896 0.7691515918155014 0  0.2318201265217025 0.7064974250277525 0  0.1565954253579966 0.6635489312486841 0  0.1598132503680848 0.7787147500325552 0  0.3146529991605639 0.8510876378205265 0  0.1461873209418733 0.05982804528877814 0  0.06109554988524315 0.2446551776247686 0  0.8054950308560754 0.5564226538848541 0  0.470541749491976 0.8853316336952531 0  0.6948472567465137 0.4042308563372457 0  0.8802828472348889 0.4658893256343853 0  0.6788075634946739 0.7974194205806069 0  0.2155048659603867 0.2428201584940968 0  0.8131223143423806 0.2132171049028394 0  0.4330798005432235 0.6671274900735726 0  0.6015279126162613 0.2187368078743274 0  0.8061636571464289 0.8703766630361714 0  0.7008230445061776 0.3478568388444072 0  0.8638466246958771 0.3147095987735538 0  0.204801534004265 0.8789209409594009 0  0.2449006736431132 0.9424182882803838 0  0.7611268409371427 0.2643056884799992 0  0.7552800864046191 0.7678006649959446 0  0.5983639638906616 0.864113435029236 0  0.1956559506814437 0.577281203577426 0  0.3527670268164207 0.1320469097565204 0  0.7530364577483248 0.3262386077083089 0  0.4535919187979363 0.4690107087451527 0  0.8824869791666666 0.8336588541666666 0  0.8814453125 0.9451171875 0  0.5582987942628019 0.622421666543858 0  0.6817532446064828 0.6939001801354731 0  0.3830295138888889 0.9450968952922078 0  0.4140603937012541 0.05211333372716105 0  0.5535864501303013 0.3060591985391672 0  0.6560130086346878 0.2729726562211558 0  0.890203140221684 0.5948314305427268 0  0.7043857725999024 0.593980890020804 0  0.5105843922695152 0.8016828014338627 0  0.05365910753708378 0.7315110031682004 0  0.616904573672261 0.4621186633436136 0  0.5338511646455415 0.387875898899613 0  0.5231769258947843 0.4477682463140762 0  0.650302973237622 0.7370722302085519 0  0.3927483139621257 0.4662414504529014 0  0.8034595960585199 0.4972538342758211 0  0.7738337841682438 0.9496376207663251 0  0.7193737507158268 0.954685447650112 0  0.482525916480686 0.5528257169991676 0  0.2533501157346781 0.2809495420003238 0  0.3118487924482243 0.5702930126570319 0  0.6257598847669529 0.4104163315430518 0  0.1354166666666667 0.1955605158730158 0  0.04166666666666666 0.15625 0  0.3956448985530264 0.6174149462065157 0  0.8102897701818546 0.3938784238208349 0  0.2641154190013625 0.8344469561943118 0  0.642852220770013 0.5068794586563659 0  0.05271458179508221 0.355846947336007 0  0.7021551360070266 0.8921457280225779 0  0.5692125776683765 0.1328512638850284 0  0.5206162811937602 0.04865158770992991 0  0.6001838442201555 0.04540556991297563 0  0.2597716608242787 0.4118346398477178 0  0.4040584599473195 0.3179589136784675 0  0.1480337679295207 0.8941560631483065 0  0.1344356707112281 0.9466251177415842 0  0.7114696411829317 0.4983917389078826 0  0.7585704698442475 0.5751926345944629 0  0.2189131956390871 0.04022068508159698 0  0.2476935455192043 0.1123642267635843 0  0.185995005654517 0.1365524537205238 0  0.6223414373308711 0.643380839165121 0  0.5732602596637543 0.7190051747306219 0  0.268358222364537 0.6586246524467934 0  0.3265879848129173 0.2369791782191225 0  0.1267095595787346 0.7034787238999181 0  0.1115202922226038 0.6421997933884982 0  0.3128688392940203 0.07260997451790079 0  0.550724900485678 0.9253360991633187 0  0.7142608810459105 0.2384904702214873 0  0.7045869185243887 0.1871826897887429 0  0.890625 0.734375 0  0.953125 0.765625 0  0.2111812642821677 0.8286209446459138 0  0.9590293078204457 0.09375 0  0.953431269039847 0.1435719386408004 0  0.04097069217955424 0.90625 0  0.04656873096015299 0.8564280613591996 0  0.1078743037981226 0.8541621766048062 0  0.8921256962018773 0.1458378233951939 0  0.8521576979194619 0.1084496634207678 0  0.8655663982740958 0.05464346096571447 0  0.04005659640905543 0.09375 0  0.1001448316533417 0.04246776244228261 
[...]
<PointData  Scalars="f_1962604"> 
<DataArray  type="Float64"  Name="f_1962604"  format="ascii">9.1770919804970752e-01  1.0000585166479574e+00  9.9988683434445425e-01  1.1467308013277187e+00  9.9997743663454253e-01  1.0903548212414098e+00  5.1328104996045520e-01  1.0847382916436636e+00  1.0435534318727351e+00  1.0035616665135254e+00  1.0000968799963399e+00  3.5672030149619671e-01  1.4375187678034171e+00  1.0035065223901669e+00  9.9977019374880194e-01  1.5728521591861280e+00  2.6879043234190809e+00  9.0883030038477797e-01  1.1409793587650943e+00  1.0671478125185938e+00  8.9476725192847306e-01  1.1701256375515390e+00  1.0165268129937273e+00  1.0755393236744435e+00  1.2654601439867399e+00  8.9924783417460286e-01  1.1922394841104191e+00  8.9510701482715649e-01  9.8036417104698237e-01  9.4302855632941052e-01  9.8553944835682228e-01  9.0283669018252000e-01  1.1191387810230429e+00  9.4627898296964230e-01  1.0051941196809624e+00  1.1516808193935899e+00  9.4850131639894830e-01  1.0999237567033464e+00  9.7892992734462370e-01  9.5097549998390984e-01  1.0247184354115482e+00  8.7367719491664531e-01  1.0000348503761451e+00  1.0000835526150846e+00  1.7656011772283142e+00  6.0954668751588024e+00  1.1608651790210418e+00  1.1252307089747704e+00  9.6447805120580865e-01  1.0000018957224051e+00  1.0000253853063474e+00  5.1539374722829701e-01  1.0000320125331088e+00  1.0238623756948755e+00  1.2233752706869230e+00  1.0251642456723062e+00  4.1821056995585465e-01  9.9999707269436866e-01  1.5118375752231319e+00  9.1812795096467625e-01  1.2545004147609811e+00  1.0528460782067941e+00  1.0825328979177180e+00  8.7161005825445370e-01  1.0876366128844883e+00  1.1480954622204000e+00  1.1896108025240515e+00  8.5765299415092322e-01  9.0833257627647401e-01  8.7664951297508720e-01  9.6862383760074600e-01  9.5169660109667831e-01  1.2017554681820382e+00  1.0446295455540424e+00  1.0412063564894756e+00  1.0914306809155243e+00  1.1486974293665495e+00  2.4534420168406723e+00  1.3473958477832346e+00  9.8691959544672003e-01  1.0211698723666272e+00  1.0214171693065437e+00  8.6464823600511653e-01  9.2202428028406325e-01  9.2398492883825079e-01  1.1695906621257426e+00  9.0784925826994212e-01  9.6422236745016865e-01  9.7831004973264479e-01  9.6846357521778148e-01  1.0548810748590667e+00  9.3997453871665859e-01  9.8428243221734180e-01  9.5009458045828066e-01  9.3240690510013802e-01  1.1439802524805152e+00  1.1640214426658158e+00  9.8693196043642639e-01  9.5443576604293556e-01  8.0238678713017619e-01  9.9043572479333786e-01  9.5270161710408197e-01  1.0455496087619143e+00  9.7445848389540968e-01  9.3652323701869400e-01  1.0878711105783656e+00  1.0104926574941613e+00  1.1513280924301177e+00  8.7661577256045731e-01  1.4573571536372862e+00  1.1833546842285816e+00  1.0473395521032254e+00  1.1065011924418486e+00  1.1459710857904670e+00  1.0965914768450076e+00  1.0385241322799239e+00  1.0428975180956683e+00  8.6800302929592654e-01  1.0414918482638083e+00  9.1229620109308240e-01  1.1873780934324736e+00  9.0505567317559432e-01  4.6587926202839283e+00  1.1070793716508995e+00  9.9259560961433080e-01  1.3725952467210703e+00  1.1181428547565098e+00  6.7937924046985965e-01  9.1646712574282740e-01  9.7251060610079010e-01  1.0652421016490210e+00  9.4379568594728536e-01  1.1726506546687798e+00  9.6432799271230096e-01  9.6152782400986259e-01  1.0449022962578514e+00  1.0807723726798844e+00  1.0719018240185845e+00  1.0334147681648655e+00  1.1343058277255309e+00  1.0298716288105767e+00  1.0010639776869636e+00  1.0001306768094267e+00  1.0074408825078096e+00  1.1193608038101961e+00  1.0125792941636169e+00  3.4530279814091482e+00  1.0577753868622659e+00  1.1604742990197634e+00  9.3376391718412355e-01  9.6245107049519285e-01  1.0489303758608233e+00  1.0001567708124610e+00  2.5308322264479512e+00  1.0577132317911233e+00  1.1126697703876625e+00  8.8813892660575144e-01  9.4597973956538672e-01  9.9984477440204245e-01  8.7039172132575915e-01  1.3431856381910912e+00  9.3410783801071184e-01  9.4795734031960532e-01  1.0000742437161139e+00  1.0000123901197449e+00  6.4162759336706543e-01  1.2407282663153789e+00  1.1340623765297773e+00  1.1447469995316819e+00  1.1799229908013340e+00  1.0333413970003551e+00  1.0730076650788503e+00  9.3875789718697300e-01  1.0000109254470961e+00  9.9974064499937310e-01  1.0844231230916515e+00  1.0994073914688396e+00  1.0429088869653387e+00  1.1703055977639452e+00  1.1756126826976765e+00  1.0041874375584046e+00  1.1139679718041549e+00  9.5191859092432851e-01  9.6649581356702274e-01  4.0316888686611091e-01  4.6442482208024005e-01  1.1582239610761973e+00  4.1343162642612541e-01  1.0108650722895749e+00  1.0506274277338772e+00  9.9986677067711127e-01  1.0007530398492956e+00  9.9987704898859764e-01  1.0000229155110467e+00  1.0008878591359278e+00  1.1419810466938174e+00  1.3254388805038955e+00  1.5332881533332416e+00  1.3883788512725033e+00  1.7611780533891765e+00  9.0677283876460646e-01  1.1927397470245760e+00  2.5974053770535748e+00  1.0386830560448250e+00  1.1494342462143876e+00  1.1835883097412134e+00  1.0898702811995067e+00  9.3514737826169336e-01  1.0229916863143542e+00  1.0474214724943376e+00  8.5873019952382468e-01  8.6189835669813464e-01  8.9408384003432484e-01  8.9469173217729558e-01  9.5660713726339186e-01  1.0981131236637656e+00  9.2406483187831023e-01  1.1169102219614362e+00  9.5728742750472451e-01  1.5690195630601558e+00  8.9996412339907672e-01  9.0957661948215629e-01  8.7676125053134091e-01  8.9722878180559595e-01  9.0764105210345825e-01  1.0193394955355084e+00  8.9611549423666592e-01  1.1945215810441110e+00  1.0471619684872779e+00  8.9240939306945377e-01  1.0711187007215339e+00  1.5251599402100657e+00  4.2607379188943435e+00  1.0286564969383822e+00  9.5559927528826671e-01  1.0035992980319330e+00  1.0152264411229444e+00  9.7625699880458305e-01  9.2874304552309073e-01  9.1873854662440135e-01  9.0615482033027117e-01  9.7523186852889387e-01  1.2414034210426175e+00  9.4175506090087657e-01  9.9450630351082681e-01  1.0124224351874880e+00  9.6673237692525171e-01  1.1121589110761951e+00  8.5785884517632682e-01  1.9279473153508708e+00  1.3331022317699595e+00  1.0718633131331969e+00  1.1103761069428777e+00  1.1739424738363080e+00  9.3222967423502523e-01  1.0663941530254413e+00  1.0196125376763281e+00  1.1396903952649655e+00  8.7578369452300875e-01  9.6918238710523807e-01  9.2858014452679194e-01  1.0701808375747563e+00  1.0877967897350669e+00  9.7873153838828597e-01  9.9800439573101418e-01  9.8691204218339179e-01  1.1533682676662962e+00  1.0677218673756625e+00  8.6718843525007328e-01  7.6362395902017355e-01  8.8220561633325656e-01  8.7131604991565104e-01  1.0216237222787727e+00  1.0527304399904684e+00  1.0571386611864857e+00  9.8152635986156533e-01  1.0139473369167806e+00  1.1726829714429188e+00  1.0814996384422546e+00  1.1750359312189413e+00  1.1918413664972791e+00  1.0344802008117717e+00  9.2149634019469739e-01  9.1982493465204351e-01  9.3386605178034887e-01  1.0282112215896817e+00  1.2525419524891970e+00  9.8533606238680504e-01  9.9085511688638739e-01  9.8146609702294907e-01  1.1070010848439915e+00  1.2086624342708607e+00  1.0142091788985661e+00  9.6035142484979663e-01  9.6146408972185804e-01  9.8073000954186162e-01  1.0088397667759701e+00  1.0103855713342438e+00  9.9351344774222572e-01  7.6414461558699842e-01  8.6045669512689194e-01  1.0025965088153042e+00  9.6307275539405335e-01  1.0016692962176990e+00  1.0235698873407475e+00  1.0443063166590243e+00  1.1018372766225963e+00  9.3922176603212515e-01  1.1515259103816655e+00  1.0331580452548683e+00  9.6625126246789583e-01  9.7746939912498498e-01  1.2907333029440229e+00  9.6553860275396008e-01  1.5210097612179043e+00  1.1019613075878496e+00  1.0888766139076882e+00  9.4109572118626028e-01  9.1419687736247213e-01  9.4638993747867550e-01  9.5861245772030679e-01  9.3944159904594760e-01  1.1336354218975910e+00  1.1202065203301246e+00  1.1464622663794410e+00  9.2152628784998980e-01  1.0165253468870574e+00  9.0605551010548979e-01  9.0892819915888656e-01  1.1302448629900710e+00  9.6809374779329005e-01  1.0356273576332757e+00  9.7409564860574960e-01  1.1833790365108077e+00  9.5001428232490104e-01  1.0844721867484310e+00  9.7591792739527139e-01  9.3415712037271692e-01  1.0676557526621910e+00  9.7665719061721390e-01  9.4068497073668411e-01  1.1835069275395040e+00  1.1304714625951260e+00  1.0955290668157212e+00  9.1881222005073526e-01  1.1276711217098336e+00  9.8499737171387824e-01  9.1849219229779677e-01  1.2207259105409964e+00  9.8220144810251109e-01  1.1748163662350959e+00  9.2261739202897053e-01  9.8372853645267877e-01  9.9957230456611756e-01  1.1571463475354831e+00  1.0858268373638533e+00  1.0647850616811994e+00  1.0975204590099201e+00  1.2286469135463560e+00  1.0937845503698396e+00  1.0414633417641825e+00  1.0055478850298847e+00  8.7656658266634391e-01  8.4715612463901158e-01  1.6673504595003845e+00  8.7250573021043154e-01  8.7301808019492488e-01  9.7604189674915720e-01  4.8229464738086145e+00  9.7989564036097210e-01  1.0156857005300248e+00  1.1734138592301941e+00  1.8621896997006533e+00  1.0154934792298391e+00  1.0832770579500399e+00  1.0401285021796174e+00  1.0310023075623853e+00  7.9704686693450744e-01  1.1415685092895840e+00  1.1124586167930011e+00  1.0845735758347790e+00  1.0873341153146681e+00  8.9694923682601824e-01  8.8426333350674824e-01  1.1025754625674686e+00  1.1164481857432611e+00  9.2608550200531026e-01  1.1591251285132005e+00  1.0760822458590866e+00  1.0021281939165696e+00  1.0167514586679900e+00  1.0076776911826941e+00  8.6158923379088925e-01  1.1050967279173434e+00  1.1127697876838292e+00  1.2417996248920020e+00  9.9637836649834732e-01  1.0186325821908735e+00  1.0275633837050626e+00  1.0684798753771219e+00  8.6721669797382384e-01  8.8261721921454228e-01  1.0579800084275774e+00  8.6926328901299676e-01  9.6524784128039887e-01  1.1870027473860647e+00  1.1309814798874283e+00  1.0001546191930479e+00  1.1700302702175744e+00  1.1925439921189842e+00  1.0870231830245691e+00  9.2869261194565811e-01  1.1023625859995170e+00  1.1334896096094131e+00  1.1654689063618724e+00  4.2684195063039698e-01  1.0729927895411551e+00  1.0770838458018117e+00  1.1296228226521472e+00  1.0332869768036321e+00  1.0317238128414621e+00  1.0578650571507504e+00  9.7147793457680731e-01  9.3414620423364036e-01  1.1767211207108186e+00  1.1911681153746687e+00  1.1103599351922526e+00  9.8230509759122453e-01  9.3357009860719498e-01  1.1196158127658058e+00  9.8682963400493484e-01  1.0001219068406773e+00  9.4542784233251898e-01  1.0875798414905677e+00  8.3705441443363393e-01  9.4723883829691380e-01  9.9590937340236607e-01  1.0274720123237537e+00  9.9317581635431573e-01  1.0198482718431841e+00  9.4474532737615946e-01  9.5983868667685379e-01  1.2417557111017052e+00  1.0729022162018125e+00  9.5160411863579630e-01  4.6925589471749616e+00  1.1332037710138021e+00  9.6734605580015409e-01  9.7147858769177642e-01  1.0335728483596640e+00  1.0000283511678902e+00  1.0939646054500538e+00  1.0969925994524603e+00  8.8262951083739705e-01  9.5481435814492976e-01  1.2316971875247662e+00  9.1884187022780606e-01  4.7704920183321603e-01  1.1092053270916939e+00  1.0978368651492298e+00  1.0489174155516074e+00  9.4224998216734879e-01  1.1609739039939833e+00  1.1897441249506615e+00  8.6344214518696305e-01  1.1437292520519817e+00  9.9991958041105944e-01  9.8318660061401897e-01  9.5328232998612272e-01  9.6203740773303759e-01  1.0659423759724660e+00  1.0592228153130190e+00  1.0116047506695567e+00  9.9080360312461613e-01  1.0528014947761402e+00  1.0441826124996780e+00  1.0622419534662491e+00  1.0260074716285303e+00  4.7765080325274806e-01  2.9064636380333639e+00  1.8045590230538737e+00  8.2397234549095932e-01  1.1778392800884907e+00  1.1372825589973647e+00  9.6921132222578243e-01  1.0170611210976066e+00  1.1665777577784955e+00  1.0692215993260954e+00  9.2308975300039764e-01  1.1831628513845520e+00  1.1594079294290369e+00  8.9542346476572310e-01  9.4219523785386949e-01  1.0166716540894607e+00  9.9823904721032453e-01  8.6138185625910302e-01  1.1241816361713168e+00  1.2011132329044663e+00  1.4651049788464146e+00  9.1294880000187717e-01  9.1938098275890567e-01  1.0420019517520118e+00  1.0000819706429860e+00  1.0017419962452272e+00  9.7945126655841319e-01  9.6133532931309018e-01  1.0173824613386255e+00  1.1939236939516211e+00  1.1465587654406928e+00  8.8736797584286464e-01  3.3060741072548385e+00  1.0371163848971356e+00  9.0927170244049238e-01  1.1579006402986609e+00  8.6126927377578288e-01  1.3880825613081209e+00  1.0509090714948299e+00  7.7737700459419634e-01  8.1501341420623019e-01  1.0073969385953858e+00  1.0433586793254415e+00  1.0136576627514184e+00  9.3918503601606407e-01  8.7151775438729584e-01  1.0941964245168212e+00  8.8587673287147306e-01  8.7921900698324373e-01  9.1313385520154933e-01  1.1603889432192991e+00  1.3047911698139267e+00  9.9610483904049729e-01  9.2036101649486601e-01  1.0023715209458341e+00  1.0312906318799773e+00  1.0659789309323573e+00  1.0065078125213132e+00  8.8734671947380861e-01  8.9954528945723866e-01  8.7994258256738811e-01  1.1192677552593211e+00  1.3190111603672314e+00  1.0991682483177962e+00  1.2140266328985374e+00  1.0002042547154080e+00  8.9619533320883427e-01  1.1452755679805822e+00  1.1606110782504744e+00  9.1245324210020817e-01  1.1229078154984118e+00  9.9361556855743416e-01  1.1342647932213878e+00  9.8563341214181255e-01  9.0322642901285699e-01  1.4426845773303911e+00  1.7065963601613841e+00  9.8542111119535825e-01  9.6965684199909175e-01  9.7432943548791096e-01  1.0387691769044853e+00  9.7785695456937138e-01  9.4100589681907110e-01  1.0515352548619972e+00  9.3755223562278256e-01  8.6873270022282489e-01  1.0624911666709094e+00  1.0482504513938162e+00  1.0345475088562943e+00  1.0753554372749412e+00  9.9884968947120778e-01  9.1908544576082740e-01  1.0161701881898215e+00  9.3403966344599088e-01  9.7680157200237094e-01  9.0337441566198795e-01  9.2545216698693100e-01  1.0125048281187432e+00  8.9401354439632075e-01  1.5138479288862261e+00  1.0007630846019739e+00  1.2648321773977997e+00  1.4253080417937172e+00  1.0947307436869969e+00  1.1928630357828918e+00  1.0697557656885233e+00  9.1648290444886815e-01  9.8142904320858437e-01  9.5917566391233600e-01  9.3608274201779684e-01  1.6758874088985549e+00  1.0541726720549460e+00  1.0450041921395101e+00  1.1248179168312262e+00  1.1858042474238224e+00  9.7026142237224600e-01  1.1749284106420788e+00  1.0158877588897586e+00  1.0337158082232527e+00  9.2662141613662119e-01  8.8495201117644273e-01  1.1672875754515635e+00  1.0359747663494103e+00  1.0188808167894909e+00  1.0431213912269557e+00  9.9444504782372911e-01  1.0356306660484094e+00  1.0618410913166478e+00  9.9232009272892585e-01  1.1885762457604858e+00  9.4054395638160215e-01  1.0190706779527003e+00  9.5403413737833342e-01  9.4123001072032253e-01  1.0000160033773628e+00  9.4860926701253856e-01  1.1028482437922824e+00  1.3269930243731793e+00  1.1622439575886223e+00  2.0350010922493977e+00  1.0122974195966590e+00  9.5745077271747048e-01  9.6388836425771618e-01  8.6373862184532879e-01  9.9993651350471124e-01  9.9996801638444244e-01  1.1958162051958308e+00  1.0000195948637711e+00  2.3105845476674052e+00  1.0104417258101253e+00  1.0000041120483334e+00  1.5519763996524445e+00  9.4430379113420615e-01  1.1121286106632948e+00  1.1007986006341024e+00  1.0514716242752833e+00  9.8766459626263314e-01  1.0770237925534356e+00  9.0610470035848878e-01  3.4948127672028546e+00  1.0111417119026969e+00  1.0211301906974344e+00  1.0246275583112641e+00  8.8097512270402345e-01  9.9102876726847455e-01  1.1890784815601445e+00  9.9135312524972907e-01  9.8376402387546824e-01  8.9032865500413261e-01  9.9388547719797626e-01  9.1768263116480875e-01  1.0985452409277559e+00  1.1255832611054066e+00  1.2589093598264678e+00  9.7576065029161685e-01  9.6398854257049060e-01  1.1217218605050443e+00  9.7516596945103218e-01  1.0249509072879286e+00  1.1137380080073631e+00  9.6857717923403563e-01  1.1128416589694972e+00  8.4276973203722261e-01  1.1370693893322441e+00  1.0000122374969986e+00  5.4365065510064232e+00  7.9120699347120449e-01  5.6368494996484824e+00  1.0314010079415450e+00  7.3968482452294038e-01  6.1441890536764177e-01  1.2711145779039572e+00  4.4845209958770743e-01  1.3216743507239346e+00  9.9989218789991718e-01  9.9999011338453503e-01  1.0669912887597566e+00  1.1230259267578415e+00  1.2033879863051327e+00  1.0338947792055695e+00  1.0636283065654837e+00  1.1100975386985852e+00  1.0062838234766620e+00  1.0001552011479431e+00  1.4956336929896807e+00  9.9974603618816504e-01  5.8815303505366612e-01  9.9987612944891202e-01  1.4366232751317598e+00  1.0002149101423032e+00  1.0000734926572841e+00  1.0000060406000244e+00  1.0000681552111212e+00  1.0002679320733914e+00  1.9069149166124626e+00  4.9216551243733958e-01  1.6381465998841611e+00  1.2225585519653486e+00  1.6767683831029840e+00  1.1783472101752916e+00  1.0017733250997480e+00  4.0325922730050656e-01  1.4825762281721571e+00  1.7953688594803565e+00  8.9955512851600439e-01  8.7152164244823793e-01  1.1341735258264145e+00  9.2128489780098288e-01  9.5943863482091774e-01  8.5435853242127768e-01  1.1101139558738877e+00  1.0972782645676022e+00  1.0864955041400126e+00  1.0018651465101396e+00  1.0127689963314133e+00  1.0245833791641030e+00  1.0523623153351951e+00  1.1778356185613679e+00  1.1977662744894619e+00  1.1984963251445611e+00  1.1487191620383723e+00  1.0571086581058045e+00  1.0455798035376660e+00  9.1684421084775936e-01  8.9060486589681920e-01  8.8624745540539340e-01  1.1200594707741049e+00  1.0604163389185006e+00  1.1885409050395386e+00  1.0922997415569302e+00  1.1316634690551299e+00  1.0199862809118463e+00  1.0221259363804220e+00  9.6811878699344101e-01  1.0244256684003032e+00  1.1490488534483376e+00  1.1293705688626496e+00  9.7844524691219603e-01  9.3703957539388261e-01  9.3251344317854323e-01  1.1408411730761765e+00  1.1324429976587407e+00  9.0277502729852810e-01  9.2354394525116335e-01  1.1694724010715696e+00  9.0148365232192351e-01  1.0811903031727996e+00  9.1306321285087011e-01  8.9129304510121521e-01  9.6237677340246675e-01  1.1701959494694789e+00  1.1567221786064674e+00  8.6091393151307294e-01  8.5925854378169253e-01  8.6508821388273305e-01  9.1452487527706061e-01  1.1496094945976225e+00  9.5687734229319688e-01  1.1491120179889116e+00  1.1238923624932304e+00  1.1215260332271766e+00  9.3738361946473492e-01  9.5151172931363892e-01  9.4114039291421558e-01  9.1036891107413520e-01  9.1624084258985872e-01  1.0470448107888106e+00  1.0048918719817319e+00  1.1906709542616243e+00  1.1859658648964433e+00  1.1697884819541191e+00  9.5097363002563562e-01  1.0510387440736437e+00  1.0538040205151376e+00  8.5640133714628563e-01  8.5750109889241266e-01  8.1586694788100178e-01  9.4347781457095359e-01  8.8986411965504464e-01  9.8582849646944615e-01  9.5400686237210153e-01  1.0565144245685185e+00  9.4128437765069439e-01  8.8352059399510674e-01  9.8301988416265840e-01  1.1208578538371561e+00  1.1830940392770515e+00  1.1446644935318189e+00  9.3231089926650834e-01  9.1422848734469597e-01  1.0627821735463852e+00  1.0988900211542330e+00  1.1852797861991928e+00  8.5754526573092738e-01  1.1440579006619847e+00  1.0038601966939253e+00  1.1218531321137162e+00  9.5298642039451253e-01  9.7848833633173160e-01  1.4474396103838028e+00  1.4122254418981772e+00  1.4065373518556850e+00  9.0985063215224138e-01  7.1011662666387299e-01  1.1930112470423910e+00  1.0404518148499591e+00  9.9629531193095000e-01  1.0822810116014396e+00  1.1841256149295654e+00  9.8391121588913744e-01  1.1064861659110781e+00  1.1921987973182426e+00  1.1932447885699129e+00  8.2937249904363275e-01  8.3100154630234102e-01  7.7718692170294534e-01  9.7297687955031287e-01  9.6696114737801775e-01  9.2035453109317078e-01  6.9955817610462645e-01  9.2234856289173428e-01  9.0480800762703395e-01  9.9638234761702082e-01  9.5629211034352191e-01  3.6308982605634283e+00  1.0605922204160732e+00  8.8886183054947043e-01  9.8222708506262280e-01  3.4183008806457393e+00  1.0125978178149480e+00  8.1762142770070245e-01  9.3846865