<?xml version="1.0"?>
<VTKFile type="UnstructuredGrid"  version="0.1"  >
<UnstructuredGrid>
<Piece  NumberOfPoints="2066" NumberOfCells="3980">
<Points>
<DataArray  type="Float64"  NumberOfComponents="3"  format="ascii">0 1 0  0 0 0  1 0 0  1 1 0  0.5 0 0  1 0.5 0  0.5 1 0  0 0.5 0  0.5 0.5 0  0 0.25 0  0.25 0 0  0.25 1 0  0 0.75 0  1 0.25 0  0.75 0 0  1 0.75 0  0.75 1 0  0.7083333333333333 0.2916666666666667 0  0.2916666666666666 0.7083333333333334 0  0.375 0.25 0  0.75 0.625 0  0.2569444444444444 0.4652777777777778 0  0.5366379310344828 0.7535919540229885 0  0.1875 0.1875 0  0.8125 0.8125 0  0.869047619047619 0.375 0  0.1450441919191919 0.6052714646464646 0  0.375 0.8690476190476191 0  0.5526960784313725 0.1825980392156862 0  0.8385416666666666 0.1614583333333334 0  0.1614583333333333 0.8385416666666667 0  0.6736111111111112 0.4652777777777778 0  0.1367521367521368 0.3477564102564102 0  0.6570970491253563 0.8648656830417855 0  0.5102479397556124 0.3386260301221938 0  0.3654513888888889 0.5737847222222222 0  0.6929750044954185 0.1362784921584263 0  0.388576102743835 0.411911725237599 0  0.6091269841269842 0.5942460317460317 0  0.875 0.6875 0  0.427278890279516 0.119889445139758 0  0.8544456845238095 0.5213913690476191 0  0.125 0 0  0 0.125 0  1 0.875 0  0.875 1 0  0.1280008648150532 0.4769292340226777 0  0.2695382451711197 0.3321750950221553 0  0.7031567235715964 0.7447810921428012 0  0.625 0 0  0.375 0 0  0.125 1 0  0.875 0 0  0 0.375 0  0 0.625 0  1 0.375 0  0.375 1 0  1 0.125 0  0 0.875 0  0.625 1 0  1 0.625 0  0.2979288363930608 0.1201429454643536 0  0.410919540229885 0.7484605911330049 0  0.5325041980395562 0.878905151526474 0  0.4831670727569156 0.6331060043826487 0  0.1735997378973042 0.7204747378973043 0  0.2534919507575758 0.5772372159090909 0  0.2633928571428572 0.8876488095238095 0  0.8199404761904761 0.2730654761904762 0  0.75830270586982 0.3919383189517417 0  0.5750282248382511 0.4237522353023667 0  0.6008360210023379 0.2794828358598495 0  0.08163442644334186 0.6821295860397322 0  0.08333333333333333 0.1875 0  0.2028380815996574 0.08844602719988583 0  0.2766521142611967 0.2325436572164097 0  0.90625 0.78125 0  0.890625 0.890625 0  0.7545696325008384 0.8973565441669461 0  0.5625 0.08086590340834317 0  0.09077380952380953 0.09077380952380952 0  0.4610923478694773 0.209034015149656 0  0.7542527598351648 0.5248380520595106 0  0.6459235536037465 0.3619913988405765 0  0.7560381768882634 0.20506142233852 0  0.07073252688172042 0.8125 0  0.0924753097241701 0.9078102849914793 0  0.9292674731182795 0.1875 0  0.9075246902758297 0.09218971500852073 0  0.8125 0.07073252688172045 0  0.2400955776842301 0.7869705776842302 0  0.9121050213379069 0.2781978201831695 0  0.7916878157143976 0.7239689078571988 0  0.9345238095238094 0.4375 0  0.4375 0.9345238095238095 0  0.3725616989755203 0.6651895248862173 0  0.06536271996350887 0.5625 0  0.9348362560379583 0.5625 0  0.456646798987055 0.8277247094351965 0  0.1875 0.9355758238725954 0  0.6169761231634859 0.6939779188977889 0  0.6226854751147515 0.7827911461419014 0  0.3305695598137626 0.7901697871282585 0  0.5865305325818898 0.5101085479043448 0  0.6622701297028378 0.2177663989757395 0  0.1354166666666667 0.2591702279202279 0  0 0.3125 0  0.2094429575680048 0.3936361846162499 0  0.836666296419157 0.607917407161686 0  0.6875 1 0  0.214261555450504 0.6492551722020035 0  0 0.4375 0  0.07731537126068377 0.40625 0  0.3427725432967068 0.4879566233699599 0  0.3550792513951871 0.3331953632609953 0  0.4462473953896857 0.2887834789342508 0  0.4747801464819794 0.417386052030127 0  0.8229836475148948 0.4443292349237342 0  0.7322605135514757 0.8199240278289671 0  0.6756431877205955 0.5468989748126787 0  0.1968419507215863 0.5194573482612496 0  0.3285590277777778 0.9345238095238095 0  0.8125 1 0  0.4198917601920009 0.5134893045331258 0  0.5232405503206691 0.2595791787880157 0  1 0.9375 0  0.1987510870015086 0.3025185951894431 0  0.5625 1 0  0.6005390654136388 0.9228110509230952 0  0.6411254848194414 0.07704872765442942 0  0.3357233162523242 0.1855113224530532 0  0.6730653396610877 0.6393887462324165 0  0.310966987234063 0.6240019765311626 0  0.7368737836204349 0.07457755202327881 0  0.6192316414418171 0.1485238406378594 0  0.5432429670607106 0.678552703844006 0  0.4754371679695679 0.7103946803120881 0  0.07501324890749672 0.3043839897335739 0  0.5358146975860403 0.5688321463205916 0  0.3115271739500156 0.3982137365971444 0  0.3625191397122174 0.0767854603650549 0  0.5024029442563831 0.1264128223758444 0  0.4375 0 0  0.4699946908887376 0.06379961173775725 0  0.9375 0.71875 0  0.9272105898044465 0.635671179608893 0  0.9375 1 0  0.6690971819568612 0.9331530898202766 0  0.1073454944778885 0.7499206387638554 0  0.8699082999280406 0.2232403652524313 0  0.5773118091863964 0.3548027349159383 0  0.1354166666666667 0.1428571428571428 0  0.3125 0 0  0.8241684193077341 0.9257452995055244 0  0.4352314948354036 0.3586940847489378 0  0.4351301473778832 0.5819726043539077 0  0.8073232928518163 0.3419398170341962 0  0.7775949246947366 0.1298519409204575 0  0.6875 0 0  0.7413513991851041 0.457933324954483 0  0.939453125 0.841796875 0  0.5630355154606987 0.8171875156478349 0  0.9345238095238095 0.3461466592368577 0  0.9375 0 0  1 0.0625 0  0.0625 1 0  0 0.9375 0  0.06552178593177167 0.4969053669623468 0  0.1424866619031703 0.4130277709291224 0  0.1275287182444726 0.5422946908002588 0  0.2637686595586339 0.06413888464529549 0  0.2524263535491086 0.1697437503243817 0  0.7367218397988525 0.6888573970660841 0  0.0625 0 0  0 0.0625 0  0.8463594539285995 0.7578283617857982 0  0.3128751192101563 0.2851997374369947 0  0.4015281788351144 0.1806421385113692 0  0.1910251795116588 0.4553332197174453 0  0.287797471442006 0.5222621440543902 0  0.3962628745986055 0.8097380085535307 0  0.3505895299554843 0.7304878890838692 0  0.5019151500495276 0.9356042615328103 0  0.9374389419410134 0.4999931039076005 0  0.3125 1 0  0.1875 1 0  1 0.5625 0  0.4375 1 0  1 0.3125 0  1 0.4375 0  0.8125 0 0  1 0.1875 0  0.5625 0 0  0.1875 0 0  0 0.1875 0  0 0.5625 0  0 0.6875 0  0 0.8125 0  1 0.6875 0  1 0.8125 0  0.8021696218581627 0.6612893947866073 0  0.06154922295426143 0.6239401126946708 0  0.9359375 0.9359375 0  0.4666158024849896 0.7691515918155014 0  0.2318201265217025 0.7064974250277525 0  0.1565954253579966 0.6635489312486841 0  0.1598132503680848 0.7787147500325552 0  0.3146529991605639 0.8510876378205265 0  0.1461873209418733 0.05982804528877814 0  0.06109554988524315 0.2446551776247686 0  0.8054950308560754 0.5564226538848541 0  0.470541749491976 0.8853316336952531 0  0.6948472567465137 0.4042308563372457 0  0.8802828472348889 0.4658893256343853 0  0.6788075634946739 0.7974194205806069 0  0.2155048659603867 0.2428201584940968 0  0.8131223143423806 0.2132171049028394 0  0.4330798005432235 0.6671274900735726 0  0.6015279126162613 0.2187368078743274 0  0.8061636571464289 0.8703766630361714 0  0.7008230445061776 0.3478568388444072 0  0.8638466246958771 0.3147095987735538 0  0.204801534004265 0.8789209409594009 0  0.2449006736431132 0.9424182882803838 0  0.7611268409371427 0.2643056884799992 0  0.7552800864046191 0.7678006649959446 0  0.5983639638906616 0.864113435029236 0  0.1956559506814437 0.577281203577426 0  0.3527670268164207 0.1320469097565204 0  0.7530364577483248 0.3262386077083089 0  0.4535919187979363 0.4690107087451527 0  0.8824869791666666 0.8336588541666666 0  0.8814453125 0.9451171875 0  0.5582987942628019 0.622421666543858 0  0.6817532446064828 0.6939001801354731 0  0.3830295138888889 0.9450968952922078 0  0.4140603937012541 0.05211333372716105 0  0.5535864501303013 0.3060591985391672 0  0.6560130086346878 0.2729726562211558 0  0.890203140221684 0.5948314305427268 0  0.7043857725999024 0.593980890020804 0  0.5105843922695152 0.8016828014338627 0  0.05365910753708378 0.7315110031682004 0  0.616904573672261 0.4621186633436136 0  0.5338511646455415 0.387875898899613 0  0.5231769258947843 0.4477682463140762 0  0.650302973237622 0.7370722302085519 0  0.3927483139621257 0.4662414504529014 0  0.8034595960585199 0.4972538342758211 0  0.7738337841682438 0.9496376207663251 0  0.7193737507158268 0.954685447650112 0  0.482525916480686 0.5528257169991676 0  0.2533501157346781 0.2809495420003238 0  0.3118487924482243 0.5702930126570319 0  0.6257598847669529 0.4104163315430518 0  0.1354166666666667 0.1955605158730158 0  0.04166666666666666 0.15625 0  0.3956448985530264 0.6174149462065157 0  0.8102897701818546 0.3938784238208349 0  0.2641154190013625 0.8344469561943118 0  0.642852220770013 0.5068794586563659 0  0.05271458179508221 0.355846947336007 0  0.7021551360070266 0.8921457280225779 0  0.5692125776683765 0.1328512638850284 0  0.5206162811937602 0.04865158770992991 0  0.6001838442201555 0.04540556991297563 0  0.2597716608242787 0.4118346398477178 0  0.4040584599473195 0.3179589136784675 0  0.1480337679295207 0.8941560631483065 0  0.1344356707112281 0.9466251177415842 0  0.7114696411829317 0.4983917389078826 0  0.7585704698442475 0.5751926345944629 0  0.2189131956390871 0.04022068508159698 0  0.2476935455192043 0.1123642267635843 0  0.185995005654517 0.1365524537205238 0  0.6223414373308711 0.643380839165121 0  0.5732602596637543 0.7190051747306219 0  0.268358222364537 0.6586246524467934 0  0.3265879848129173 0.2369791782191225 0  0.1267095595787346 0.7034787238999181 0  0.1115202922226038 0.6421997933884982 0  0.3128688392940203 0.07260997451790079 0  0.550724900485678 0.9253360991633187 0  0.7142608810459105 0.2384904702214873 0  0.7045869185243887 0.1871826897887429 0  0.890625 0.734375 0  0.953125 0.765625 0  0.2111812642821677 0.8286209446459138 0  0.9590293078204457 0.09375 0  0.953431269039847 0.1435719386408004 0  0.04097069217955424 0.90625 0  0.04656873096015299 0.8564280613591996 0  0.1078743037981226 0.8541621766048062 0  0.8921256962018773 0.1458378233951939 0  0.8521576979194619 0.1084496634207678 0  0.8655663982740958 0.05464346096571447 0  0.04005659640905543 0.09375 0  0.1001448316533417 0.04246776244228261 
[...]
<PointData  Scalars="f_739508"> 
<DataArray  type="Float64"  Name="f_739508"  format="ascii">9.7859644031181511e-02  9.9143317116890902e-05  -4.5182437875956547e-06  4.2848801702446419e-02  -8.8097293091369697e-02  2.1770209651529404e-01  2.5894742022517231e-01  2.0460528281348078e-01  -1.5731940292271013e-01  4.2062825814939850e-02  -3.7768994937737249e-02  -1.5214807019696419e-01  4.7506764510946242e-01  4.3171354413537526e-02  -3.8425461843437786e-02  5.6675030207149324e-01  1.8167343871843904e+00  -5.1242589757374127e-02  1.9375259586375555e-02  -7.5679721102087719e-02  -4.2810522459885487e-02  -4.8128311168373544e-02  -5.4574319642216413e-03  -1.4763659297624380e-02  3.6150934521638728e-01  5.6587120642335974e-02  7.0990672703055521e-02  1.6809728891452660e-01  -7.2395028573932763e-02  -3.5121081486933318e-03  1.9585185111257394e-01  -1.0766186705962125e-01  2.2446206719151894e-02  3.0847249037390595e-01  -1.1566254211572352e-01  -1.0145994825635836e-01  -4.3374645562762423e-02  -1.1253911618281263e-01  -1.4955334634902123e-01  1.8636015453785507e-01  -6.6876586479650516e-02  9.4938724354111534e-02  -4.8621098160353659e-03  4.4687278449305080e-03  5.9959509432953173e-01  1.3806661136707472e+00  5.2282134748354102e-02  -5.0058043032585743e-02  5.4030547965256248e-02  -7.3881919715512931e-02  -7.3262558952560536e-02  3.9890200523583753e-02  -5.0245236982806411e-03  1.0817307129710953e-01  3.3282045899944651e-01  1.1286519353635573e-01  -6.0567434288992750e-02  4.4357622845531373e-03  5.4259553719364395e-01  7.1747286416396705e-01  3.6632331193341561e-01  -4.6764794294928295e-02  1.6531402963929187e-02  2.1247329126012124e-01  -1.2801841615683018e-01  9.8628982330958154e-02  -3.0372432689519481e-02  1.7754040408798971e-01  4.7140781959396933e-03  -3.0524671264331515e-02  -1.3712535384044611e-01  -8.6477629658638921e-02  1.9483925790456053e-01  1.5325668780049673e-02  -2.4481517502012433e-02  -4.5348442422341179e-02  2.6020699098309041e-01  6.0109058314665764e-01  6.8878353445285101e-01  -6.5507500735932533e-02  -6.8472943276145159e-04  -7.9608490546806771e-02  -4.3744897669251243e-02  -9.5043830367988455e-02  -2.6234960559543500e-02  3.0640101326077762e-01  3.0330715047671597e-01  2.1459650694895846e-02  1.4689100782388378e-04  -1.9335023948723096e-02  1.1738377978496722e-01  4.5217369440647699e-02  8.3095104200139797e-02  1.3562769829400717e-01  1.0602320212040316e-01  -5.8124751833179888e-02  1.5346376873033432e-01  2.3937927612918328e-01  1.2373575521208875e-01  8.1208210857012630e-02  -7.9680703212781812e-02  6.8971971834042717e-02  9.7380967006535341e-02  -1.5631921589116043e-01  -5.7508748879337775e-02  1.0902385982439372e-02  7.1612776702344227e-02  -1.8587381732709927e-02  8.7825707804021283e-02  1.1157070166320098e+00  2.5836596068189228e-02  1.5225786031964170e-01  7.4454070788306653e-02  -9.9342784298746684e-02  -8.5648042496346471e-02  -9.7003759568504419e-02  -1.3667076391549976e-01  3.3433981589390899e-02  2.9800435497303324e-01  -1.2019816612752914e-01  9.4609975848686907e-04  -8.0208014840201843e-03  2.2576722814427428e+00  -1.3576107924830824e-01  -9.1713156585714523e-02  3.5448406359182244e-01  -1.4646041898804528e-02  4.5542104448715054e-01  3.7430401594336049e-01  -5.4853985785899867e-02  -5.8157955781967897e-02  -1.0293157230911809e-01  -5.0277976000286627e-02  -3.5687842921340585e-02  -5.8942100977992441e-02  -1.0435855440032708e-01  -5.5348096216280535e-02  4.4603019484108671e-02  -1.6168156186146840e-01  -7.6984207198052962e-02  -5.9830311123256388e-02  -6.9025812156495905e-02  -8.4096703494427563e-02  -7.1150998897871812e-02  3.9816498213736040e-01  2.9848194961994412e-01  2.3911930724421857e-01  5.8803996595763530e-01  1.9258135507307575e-01  1.6383051300678943e-02  -1.1423982626721846e-01  -3.5533812464944095e-03  -5.6884951261916915e-02  1.4413358665418519e+00  -1.1385725493677956e-01  -1.3303446131186294e-01  5.0933741328438049e-03  -2.2853958249539539e-02  -5.7675820768040773e-02  -5.1447106530486356e-02  3.0451753699524758e-01  1.1302073459673842e-01  8.1598646820391210e-02  1.5514478466980247e-03  -1.3985041862282844e-03  4.0700996801756061e-02  4.3600526133403461e-01  1.2100639797505036e-01  2.8505887846956346e-02  6.9587030043353218e-02  -4.0014824440041931e-02  -3.5604382717008838e-02  -1.1230704196140631e-02  1.4935388354395042e-03  -1.6316200804449336e-03  1.7041902824804911e-01  -6.3134799633673702e-02  -6.9442377854588108e-02  -2.4243388146732345e-03  -6.4725858211758927e-02  1.0829536774579827e-01  1.6411560239991064e-02  2.1553242600683123e-01  1.8513718531932591e-01  -1.7346581815900525e-01  -7.6868982394646360e-02  2.8521346082580384e-01  6.5654703907782691e-02  7.4271113749802511e-02  1.6024723266416691e-01  -1.9535230035103268e-02  1.9844097679507292e-02  -8.4477982039239619e-02  -1.9085503437523181e-02  1.9397029503571951e-02  2.6463213519766793e-01  4.0612333184420346e-01  5.2803729229849850e-01  4.5909410380311683e-01  6.3800988917645463e-01  3.7594289866152993e-02  1.9567854351535430e-01  1.7200243446527180e-01  3.0405329963517452e-02  4.9179393342633777e-02  8.2718761520602924e-02  1.5108145372353163e-01  1.6555024173849936e-01  -1.2644859935838604e-02  3.2820946008468695e-02  2.6728929537695928e-02  1.8036454252093340e-01  -7.9219094444561086e-02  1.0398853807042062e-01  1.5190591672783757e-01  -2.2958150647589218e-02  -4.9761706274857979e-03  -8.4596815496497085e-02  -7.2095910165265023e-02  7.2482990892240051e-01  -6.4245240450551688e-02  3.5402914627987996e-02  1.9928751650653878e-01  -7.2758614802214530e-02  -2.4369164993045030e-02  1.6277229813175226e-01  2.3389698129488357e-01  1.4343459700585787e-02  -5.7967359925112212e-02  -3.0700669211702680e-02  -1.4337946864257675e-01  3.1960122574424848e-01  1.2995149497787748e+00  -1.4630658035989974e-01  -4.7647218114801305e-02  -2.8115699467204696e-02  -6.8961423193393587e-02  -1.0267264168267416e-01  -6.9104482795761299e-02  1.9171068803100128e-01  -9.6056973446641825e-02  7.7680716375672088e-02  2.8872864177295926e-01  -1.3632071957131087e-01  -1.3084577381118034e-01  -1.4879129148238446e-01  -2.2071793197369913e-03  -1.2213410142981215e-01  1.8187214541107263e-02  1.4309011065765562e+00  9.7671319319622774e-01  -1.5484646085875692e-01  -3.9414641912931467e-02  -7.1308897463286613e-02  -1.1766976378632826e-01  2.7776143673905003e-03  1.4108590807637923e-02  -1.0095394083296128e-01  1.3110512111796367e-02  1.5971961473550023e-01  -1.3503334424606167e-01  7.1735446487283652e-02  4.9379174503166712e-01  -6.4794923493780188e-02  -7.2902549009143225e-02  -6.5626857151704521e-02  -4.9638916555842669e-02  -9.6766622475971509e-02  2.3238258140163062e-01  1.3869914878814155e-01  -8.4997858839071253e-02  -3.9454890544730406e-02  -2.9375853934759364e-02  -3.4886688482573085e-02  -1.7653876416354547e-02  -1.2429365358090931e-01  -5.6602335047854925e-02  -5.3802714173573889e-03  -6.1377249915343476e-02  1.3739710485649972e-01  1.2608306615445394e-01  -5.0801915341423753e-02  2.8975763141443256e-01  -4.2754804106206995e-02  -4.2296905590984119e-02  2.2702317665071908e-01  4.8572695060792409e-01  1.6582022077166270e-01  4.3677517617249882e-03  1.2698327621688382e-02  4.2864910755207120e-01  4.0088117021048397e-01  2.5858449651528365e-01  6.3466109100223708e-03  -7.4704835854004894e-03  -9.8879745463631534e-03  4.0343476232550819e-03  -4.9838886689485776e-03  -9.2269386966991284e-04  2.4004262184620123e-01  1.6472231512186536e-01  5.4897251523086382e-05  -4.5045016516632799e-02  -7.4629583775781924e-02  -7.1539200251220930e-02  -7.8740168014517636e-02  2.1085751224525254e-01  -1.3046794449024221e-01  -7.8497858598803302e-02  6.3559831051022021e-03  3.8843673327490405e-02  -2.9576490027749789e-02  3.6793695205770477e-01  6.5601762616988427e-02  2.1510368702074381e-01  1.0662200552441121e-01  7.5134482432045832e-02  -9.5573952067971965e-02  1.7328322956112818e-01  -5.2540731174848324e-02  -1.5126571265690408e-01  -3.2551166477690817e-02  -5.9924008719953190e-03  -2.6216966695329035e-02  -1.8680712701707573e-02  2.5631616016519639e-02  -6.0152153771782638e-02  9.0608702033884200e-02  1.5311426882990001e-01  8.3179638878514331e-02  1.1499192016481066e-01  5.0625365493903680e-02  -5.9785969163698972e-02  -3.5245652342184672e-02  9.5231142763069682e-02  1.9018521157546728e-01  3.3083223588628190e-02  -1.5096727478248516e-02  6.0032094674661841e-02  1.4000712594616746e-01  9.1491045098010773e-02  1.0773524234327454e-01  1.8246582843557471e-01  3.0775526142611714e-01  1.6690605626583330e-01  -9.7001560930543823e-02  -5.7849679694571360e-02  -7.6135070292037796e-02  4.9891653215895826e-01  -4.3499269291693045e-02  3.8911520894703810e-01  1.7701347747472568e-01  -1.5164123325883741e-01  -2.6122073935264101e-01  -9.5756134701950726e-02  -4.7540996474919649e-03  1.7696541851499090e-02  2.3592670224072149e-02  2.8383806585645632e-01  1.4358641302889175e-01  2.3888253403863965e-01  1.7713366631531846e-01  2.4736744032791655e-01  3.1919384840697940e-01  3.7318001526938566e-02  1.0110535312655032e-01  8.7495113698747452e-03  -8.1064230114197486e-02  1.9863204185894405e+00  2.8906446451124473e-01  -1.6276469343254854e-01  2.2648360933746967e-01  7.4388904994485150e-01  -1.2166861783000064e-01  -1.2938266062327097e-01  -1.2425089012650461e-02  -1.2445262188109597e-01  4.3709907361241440e-01  -4.0428797303466296e-02  -6.8642622108421952e-02  -7.8061376669738877e-02  -1.0336518174950289e-01  -8.9600813500686858e-03  -8.2373790938438579e-02  -4.1284066870401093e-02  -1.1641159240428373e-01  8.7550820747116676e-02  -7.9307601666575897e-02  -4.7366110538035210e-02  -8.2965261935917425e-02  -9.1742324681788487e-02  -1.0276190848252767e-01  1.3940316679007933e-01  5.0274819567225432e-02  -9.3693980953794831e-02  2.3588072607470376e-01  -1.6069676707167699e-01  3.1201086456937438e-01  2.5173872331514718e-02  9.7874127910397207e-02  -9.5121366650753932e-03  5.0886322667045472e-02  -1.4906443816148388e-01  6.4771467073402408e-02  5.0773043118709771e-01  -1.1017410188997264e-02  -2.7517675132922925e-02  1.0744408075117526e-03  6.1265345854067239e-02  3.6499491369287075e-02  -3.2481673475598175e-02  1.5238464521664774e-01  -8.0741651822510627e-03  -1.1687940182390441e-01  -2.9347483357499392e-02  -1.0731200591079199e-01  2.8290776230324052e-02  -1.4951078257071793e-01  -1.2367861563443502e-01  6.4805356011982479e-02  -1.1016540258876964e-01  -8.7716399433207179e-02  6.0059557952060250e-02  3.4883957797898119e-01  2.0407678167272673e-02  -1.7527763071185816e-02  7.7058406408002891e-02  -1.2564745853153043e-02  -6.3299039116333694e-02  3.1073179143777291e-01  1.6097312840752054e-01  -4.7494698171280797e-02  9.2591910056758434e-03  -1.4395276545989608e-01  1.0379064000319514e-01  -2.0993619780338971e-01  -6.8023045830738468e-02  1.2141827933638236e-01  -7.1709804654967541e-02  -4.9255539745557332e-02  3.1081727999783617e-02  -5.0467472876058676e-02  2.8269708222740003e-01  -1.2111701333946669e-01  -3.5956185823195798e-02  5.7617405706882385e-01  -6.1118966752344704e-02  -9.0699500524789395e-02  -9.0167207577262085e-02  -6.2629385788079431e-02  -5.6762654621597133e-04  -9.5990711598071932e-02  1.0646341925706229e-01  2.7352578872063538e-01  -1.6070006901312193e-02  3.8615714325519868e-01  6.0726037583742287e-02  -2.8326582053178517e-03  4.2477741624083465e-03  -1.4384522001906605e-01  6.3244645322713011e-02  -6.9907648678172840e-02  8.4183952415224431e-02  3.1627363818563757e-02  1.3154776927185302e-01  5.6549145345759274e-03  -1.1297017056878640e-02  -1.6659121045894083e-02  -6.2151216163711741e-02  -2.6758157248698844e-02  -6.6613875997498129e-02  -5.2412262041902878e-02  -6.8548253147793670e-02  -6.9970850310827129e-02  -6.0620649420704262e-02  -1.0776225974291986e-02  -1.2767833382261290e-01  -2.0954772278053545e-02  5.3608631183144663e-03  1.2708466111284091e+00  1.0278953709814154e+00  1.5814903446934683e-01  -2.2764938823344131e-02  8.7311783747848071e-01  -6.5862742721736450e-02  -6.7841044273784026e-02  -6.8788976718010583e-02  -2.4727875883254997e-02  1.8300450104712607e-01  -4.0206368763105273e-02  -5.0121640119715448e-02  9.2459171545245883e-02  -1.1240177990328327e-01  9.2413315836975402e-02  2.6910951267519639e-01  -2.8127011582664223e-02  4.8105239219361834e-01  2.6567320701866237e-01  4.3212876151410579e-01  -9.8799181334340742e-03  -1.1704165514479956e-01  -1.4683914334227322e-01  -1.1156168502320771e-02  3.0724777999793187e-02  2.8052207108870745e-02  -4.7063189498086216e-02  -6.5298237985219040e-02  2.0542430316589413e-01  1.3977997351165600e-01  -5.5785548962746428e-02  1.8483133050716729e+00  -6.5533284358980176e-02  1.5027839136035337e-01  -7.5069139248310683e-04  1.0112921333739011e-03  4.4032398451011984e-01  1.4271121434542200e-01  -1.1029803971888791e-01  -2.2141489307209977e-01  -7.4922226028555250e-02  -5.3461506283995888e-02  -1.5680683380525878e-01  6.0858974426231720e-02  1.7379348830346014e-01  5.5032294826189924e-02  -7.9870510559966107e-02  -5.6029491026182689e-02  -1.0938243568296306e-02  -1.3376263940139970e-02  4.1085572603641352e-01  1.4975263340062048e-01  9.9960253741912062e-03  -7.6991585201951818e-02  -8.5632730704313723e-02  -4.4257264296050855e-02  5.7730326865958324e-02  2.8067388904798589e-02  1.2808795891703266e-02  -9.2107889030382580e-03  -7.7980072166427744e-02  5.0341430948340538e-01  3.3974478537500596e-01  4.3593159178824342e-01  -1.0327521559646599e-03  1.6048098258339547e-01  5.0894252824252036e-02  2.3220906912359427e-02  -9.8108271917130105e-02  7.7227364601642123e-01  4.3708010534462982e-01  -1.1727015710369740e-01  -4.2860994289516023e-03  -1.1281499872264111e-01  5.0003441628176393e-01  2.6332754635418787e-01  -1.1895931602066968e-01  -1.2708864993609406e-01  7.0020770741270541e-03  3.2317380633494158e-01  5.2206212113082108e-02  9.8418024703234755e-02  -6.2676419215291712e-02  3.2248730312282176e-02  1.1149352401995528e-01  -9.2185026186840536e-03  5.6885228976910019e-03  -4.0069191650071714e-03  -3.5901148434312265e-03  5.2859346683672244e-04  -8.5671276115035694e-02  8.9226267650554192e-02  2.5377129403033570e-03  5.2351326094427254e-02  3.6065044866346979e-01  -5.6191021190029174e-02  -6.9997327395436848e-02  1.8342100194620478e-01  2.0737920681400474e-01  -1.4198970805797528e-01  6.9064874209276228e-01  5.3688810318599978e-01  4.0151996254060282e-02  5.4588122654549284e-03  -9.6995339583025350e-02  1.4479490629355402e-01  9.9128159927708209e-02  6.5782305484774845e-02  -8.2619883501269850e-02  6.1991368666406599e-01  -2.6243956284838249e-02  -1.6113173611120182e-01  4.7709967441164722e-02  -4.3266130300679599e-02  -5.2966826165117185e-02  4.9282156067496363e-02  -1.3915171192356993e-01  -7.5085611022304058e-02  1.9096478226870131e-01  -3.4754003427845931e-02  1.0796526103888561e-01  -3.1932360626500234e-02  -3.7834358736493379e-02  -4.4109593366686163e-02  1.5095358203470030e-01  1.3516087468611615e-01  -1.5590813194982292e-01  -1.4006295201346208e-01  6.8230634629338621e-02  2.2045543740053650e-01  7.8341210588751230e-03  -9.5530841958981351e-04  1.5023210335978282e-01  -7.9425354944370849e-02  2.0417597847350918e-02  1.9833306900378175e-01  2.5074426852833298e-01  -8.5008847663322853e-02  1.0279776287131599e+00  1.1934505358777453e-01  -9.8142933730017270e-02  1.6098884985334130e-01  2.2331337451712277e-01  1.0768345189000759e-03  -1.0359798047433696e-03  2.5020099792834544e-01  -8.7296512412297661e-02  2.7869253962037022e-01  6.1034301266604948e-04  1.1119251740002377e-02  5.4376567105846496e-01  -1.3113559539744220e-02  -5.2805970155408125e-02  -5.0534716642689291e-02  -1.0532309892467634e-01  -6.5910253594512955e-02  6.8845693033927078e-03  -8.2024559278263021e-02  2.1593504869163191e+00  -9.5024660300122681e-03  -6.5025970723298562e-03  -6.4238965596668168e-02  6.8449449907992455e-02  -6.8852762820209162e-03  1.4026879149837104e-01  -7.7384818896436169e-02  1.1189541346733763e-01  1.3603372193776725e-01  1.3648737077922901e-01  1.6390747401257183e-01  1.7002255402325497e-02  2.0523239466488426e-02  4.5705423564528030e-01  -4.8459015012117510e-02  -1.3503209066142363e-01  5.1703124413146721e-02  2.1075529686365688e-01  2.0948239298084245e-01  3.1379644950988250e-01  1.3558196707573448e-02  1.5963102924165076e-01  3.4124436492640886e-01  3.4929279037639333e-01  -8.7020943624917232e-02  7.6778651307545465e-01  5.7911808519301045e-01  2.0363925739841968e+00  2.4985439713074842e-01  6.7155850411451043e-02  3.4308279453549878e-01  3.6875822544811998e-01  -1.8418452527276935e-01  4.1003035145642186e-01  -4.8202872899499115e-02  -6.6508621117752201e-02  1.8698280087162739e-01  2.4994069358391374e-01  3.2359706591462456e-01  1.2981944417053309e-01  1.7773458087040059e-01  2.3391546080004100e-01  5.5956943576366935e-02  -6.5665492601858652e-02  5.0575667884193343e-01  -2.8695004277843161e-02  5.2376722264358778e-02  -1.5443368172651179e-04  5.2023163917713633e-01  2.6946577866115290e-04  -2.8075657196493818e-02  -7.9908969745360700e-02  1.3940280483403525e-04  1.0800877416100476e-02  1.4744439472760758e+00  1.7250236739939329e-01  5.0951884005649639e-01  1.6678990551545772e-01  3.9801180807170567e-03  2.9855454223534128e-01  2.9913088992615269e-02  -1.1829007020383397e-01  5.1341109636474169e-01  6.2858753104951026e-01  -2.6087101124317922e-02  1.9089829672774372e-01  -8.4421607454305159e-02  -2.7375302016679859e-01  -8.0990593525145135e-02  1.7874001502739531e-01  -2.4724976703712685e-02  -3.5004035373533131e-02  -2.1239136316838700e-02  2.6514356344689388e-01  -1.7674527856009859e-02  3.5406720692249184e-02  1.8477034091198671e-01  1.7392106076204433e-01  1.7768783482381217e-01  2.5565605379120337e-01  1.3963320465947232e-01  4.0224892080231403e-02  2.3512968000730630e-02  1.1737242061337569e-01  -4.1026402440463737e-03  1.0779688928717271e-01  -3.1159399037516324e-02  2.7090542329631057e-01  1.3837195868957253e-01  -1.3382350860571837e-01  2.5836089404304437e-02  -1.5814779419524586e-01  -9.4803921295123939e-02  -7.1377037026768134e-02  1.0307292585640349e-01  -6.7723317275901043e-02  -1.0668343804347198e-01  1.9812358372022765e-02  -2.4032170445525823e-02  1.0858881271572919e-01  -2.1659788034306064e-02  -1.9247150361791091e-02  4.3473610197868814e-02  4.0075858798643602e-02  -7.1864637437287285e-02  -9.7448717569954754e-02  -7.0178804481264234e-02  1.6480736905846149e-01  -9.8331292733903453e-02  2.4919593658929037e-01  2.2683700855192491e-02  1.8266907191990880e-02  -1.8071913295330148e-02  4.6414481562077475e-02  4.4752234376113822e-02  1.7988083241765102e-01  2.0860907459410441e-01  1.1014789422895443e-01  7.1349796319590389e-02  1.6813364341835604e-01  1.2338696074796129e-01  3.7589795038571205e-01  -1.2512450341033274e-01  1.3283060008195571e-01  -3.9078007265732372e-02  -3.0184554152295311e-02  2.2361099030463874e-01  7.7791498890782837e-02  8.6134155631911985e-02  5.0519231750652198e-02  9.0559382470987090e-02  1.4814119248589805e-01  -1.2708288505170548e-01  5.9415001980688741e-02  1.6315541320121221e-01  1.8980749469397057e-01  1.9152484099536282e-01  1.9049177218243027e-01  2.1361921095208466e-01  4.6322288447384324e-01  -1.4507278536720317e-01  -7.3447218583657242e-02  2.2451955022248105e-01  4.0949763184137879e-02  8.1895647140320701e-02  -5.6199417969521381e-02  -5.1500807405884468e-02  8.8011935831387222e-02  -1.3762913558422632e-01  2.5244633978578324e-01  -3.1468799301351151e-02  -7.3263233673543857e-02  6.7259764478132067e-01  -6.4032623707648536e-03  -1.1053547194575780e-01  -6.9131080631935418e-02  -2.4732253540226848e-03  -2.9291937168188991e-02  -2.2803952415736812e-02  5.4605020628400858e-01  6.7301662531580431e-01  5.5094876747654509e-01  1.9503997284993354e-02  8.6271840264022556e-02  4.0350484149859346e-02  -1.2923441344168313e-01  -1.5869682224376280e-01  -5.2644161596988044e-02  2.5338243848139291e-02  2.2651005517147862e-01  -1.0859430688987753e-01  5.6628468062755429e-03  -9.4138033937760570e-03  1.1803595239131665e-01  6.0046689728756784e-02  -2.7158301410998692e-0