<?xml version="1.0"?>
<VTKFile type="UnstructuredGrid"  version="0.1"  >
<UnstructuredGrid>
<Piece  NumberOfPoints="3990" NumberOfCells="7722">
<Points>
<DataArray  type="Float64"  NumberOfComponents="3"  format="ascii">0 1 0  0 0 0  1 0 0  1 1 0  0.5 0 0  1 0.5 0  0.5 1 0  0 0.5 0  0.5 0.5 0  0 0.25 0  0.25 0 0  0.25 1 0  0 0.75 0  1 0.25 0  0.75 0 0  1 0.75 0  0.75 1 0  0.7083333333333333 0.2916666666666667 0  0.2916666666666666 0.7083333333333334 0  0.375 0.25 0  0.75 0.625 0  0.2569444444444444 0.4652777777777778 0  0.5366379310344828 0.7535919540229885 0  0.1875 0.1875 0  0.8125 0.8125 0  0.869047619047619 0.375 0  0.1450441919191919 0.6052714646464646 0  0.375 0.8690476190476191 0  0.5526960784313725 0.1825980392156862 0  0.8385416666666666 0.1614583333333334 0  0.1614583333333333 0.8385416666666667 0  0.6736111111111112 0.4652777777777778 0  0.1367521367521368 0.3477564102564102 0  0.6570970491253563 0.8648656830417855 0  0.5102479397556124 0.3386260301221938 0  0.3654513888888889 0.5737847222222222 0  0.6929750044954185 0.1362784921584263 0  0.388576102743835 0.411911725237599 0  0.6091269841269842 0.5942460317460317 0  0.875 0.6875 0  0.427278890279516 0.119889445139758 0  0.8544456845238095 0.5213913690476191 0  0.125 0 0  0 0.125 0  1 0.875 0  0.875 1 0  0.1280008648150532 0.4769292340226777 0  0.2695382451711197 0.3321750950221553 0  0.7031567235715964 0.7447810921428012 0  0.625 0 0  0.375 0 0  0.125 1 0  0.875 0 0  0 0.375 0  0 0.625 0  1 0.375 0  0.375 1 0  1 0.125 0  0 0.875 0  0.625 1 0  1 0.625 0  0.2979288363930608 0.1201429454643536 0  0.410919540229885 0.7484605911330049 0  0.5325041980395562 0.878905151526474 0  0.4831670727569156 0.6331060043826487 0  0.1735997378973042 0.7204747378973043 0  0.2534919507575758 0.5772372159090909 0  0.2633928571428572 0.8876488095238095 0  0.8199404761904761 0.2730654761904762 0  0.75830270586982 0.3919383189517417 0  0.5750282248382511 0.4237522353023667 0  0.6008360210023379 0.2794828358598495 0  0.08163442644334186 0.6821295860397322 0  0.08333333333333333 0.1875 0  0.2028380815996574 0.08844602719988583 0  0.2766521142611967 0.2325436572164097 0  0.90625 0.78125 0  0.890625 0.890625 0  0.7545696325008384 0.8973565441669461 0  0.5625 0.08086590340834317 0  0.09077380952380953 0.09077380952380952 0  0.4610923478694773 0.209034015149656 0  0.7542527598351648 0.5248380520595106 0  0.6459235536037465 0.3619913988405765 0  0.7560381768882634 0.20506142233852 0  0.07073252688172042 0.8125 0  0.0924753097241701 0.9078102849914793 0  0.9292674731182795 0.1875 0  0.9075246902758297 0.09218971500852073 0  0.8125 0.07073252688172045 0  0.2400955776842301 0.7869705776842302 0  0.9121050213379069 0.2781978201831695 0  0.7916878157143976 0.7239689078571988 0  0.9345238095238094 0.4375 0  0.4375 0.9345238095238095 0  0.3725616989755203 0.6651895248862173 0  0.06536271996350887 0.5625 0  0.9348362560379583 0.5625 0  0.456646798987055 0.8277247094351965 0  0.1875 0.9355758238725954 0  0.6169761231634859 0.6939779188977889 0  0.6226854751147515 0.7827911461419014 0  0.3305695598137626 0.7901697871282585 0  0.5865305325818898 0.5101085479043448 0  0.6622701297028378 0.2177663989757395 0  0.1354166666666667 0.2591702279202279 0  0 0.3125 0  0.2094429575680048 0.3936361846162499 0  0.836666296419157 0.607917407161686 0  0.6875 1 0  0.214261555450504 0.6492551722020035 0  0 0.4375 0  0.07731537126068377 0.40625 0  0.3427725432967068 0.4879566233699599 0  0.3550792513951871 0.3331953632609953 0  0.4462473953896857 0.2887834789342508 0  0.4747801464819794 0.417386052030127 0  0.8229836475148948 0.4443292349237342 0  0.7322605135514757 0.8199240278289671 0  0.6756431877205955 0.5468989748126787 0  0.1968419507215863 0.5194573482612496 0  0.3285590277777778 0.9345238095238095 0  0.8125 1 0  0.4198917601920009 0.5134893045331258 0  0.5232405503206691 0.2595791787880157 0  1 0.9375 0  0.1987510870015086 0.3025185951894431 0  0.5625 1 0  0.6005390654136388 0.9228110509230952 0  0.6411254848194414 0.07704872765442942 0  0.3357233162523242 0.1855113224530532 0  0.6730653396610877 0.6393887462324165 0  0.310966987234063 0.6240019765311626 0  0.7368737836204349 0.07457755202327881 0  0.6192316414418171 0.1485238406378594 0  0.5432429670607106 0.678552703844006 0  0.4754371679695679 0.7103946803120881 0  0.07501324890749672 0.3043839897335739 0  0.5358146975860403 0.5688321463205916 0  0.3115271739500156 0.3982137365971444 0  0.3625191397122174 0.0767854603650549 0  0.5024029442563831 0.1264128223758444 0  0.4375 0 0  0.4699946908887376 0.06379961173775725 0  0.9375 0.71875 0  0.9272105898044465 0.635671179608893 0  0.9375 1 0  0.6690971819568612 0.9331530898202766 0  0.1073454944778885 0.7499206387638554 0  0.8699082999280406 0.2232403652524313 0  0.5773118091863964 0.3548027349159383 0  0.1354166666666667 0.1428571428571428 0  0.3125 0 0  0.8241684193077341 0.9257452995055244 0  0.4352314948354036 0.3586940847489378 0  0.4351301473778832 0.5819726043539077 0  0.8073232928518163 0.3419398170341962 0  0.7775949246947366 0.1298519409204575 0  0.6875 0 0  0.7413513991851041 0.457933324954483 0  0.939453125 0.841796875 0  0.5630355154606987 0.8171875156478349 0  0.9345238095238095 0.3461466592368577 0  0.9375 0 0  1 0.0625 0  0.0625 1 0  0 0.9375 0  0.06552178593177167 0.4969053669623468 0  0.1424866619031703 0.4130277709291224 0  0.1275287182444726 0.5422946908002588 0  0.2637686595586339 0.06413888464529549 0  0.2524263535491086 0.1697437503243817 0  0.7367218397988525 0.6888573970660841 0  0.0625 0 0  0 0.0625 0  0.8463594539285995 0.7578283617857982 0  0.3128751192101563 0.2851997374369947 0  0.4015281788351144 0.1806421385113692 0  0.1910251795116588 0.4553332197174453 0  0.287797471442006 0.5222621440543902 0  0.3962628745986055 0.8097380085535307 0  0.3505895299554843 0.7304878890838692 0  0.5019151500495276 0.9356042615328103 0  0.9374389419410134 0.4999931039076005 0  0.3125 1 0  0.1875 1 0  1 0.5625 0  0.4375 1 0  1 0.3125 0  1 0.4375 0  0.8125 0 0  1 0.1875 0  0.5625 0 0  0.1875 0 0  0 0.1875 0  0 0.5625 0  0 0.6875 0  0 0.8125 0  1 0.6875 0  1 0.8125 0  0.8021696218581627 0.6612893947866073 0  0.06154922295426143 0.6239401126946708 0  0.9359375 0.9359375 0  0.4666158024849896 0.7691515918155014 0  0.2318201265217025 0.7064974250277525 0  0.1565954253579966 0.6635489312486841 0  0.1598132503680848 0.7787147500325552 0  0.3146529991605639 0.8510876378205265 0  0.1461873209418733 0.05982804528877814 0  0.06109554988524315 0.2446551776247686 0  0.8054950308560754 0.5564226538848541 0  0.470541749491976 0.8853316336952531 0  0.6948472567465137 0.4042308563372457 0  0.8802828472348889 0.4658893256343853 0  0.6788075634946739 0.7974194205806069 0  0.2155048659603867 0.2428201584940968 0  0.8131223143423806 0.2132171049028394 0  0.4330798005432235 0.6671274900735726 0  0.6015279126162613 0.2187368078743274 0  0.8061636571464289 0.8703766630361714 0  0.7008230445061776 0.3478568388444072 0  0.8638466246958771 0.3147095987735538 0  0.204801534004265 0.8789209409594009 0  0.2449006736431132 0.9424182882803838 0  0.7611268409371427 0.2643056884799992 0  0.7552800864046191 0.7678006649959446 0  0.5983639638906616 0.864113435029236 0  0.1956559506814437 0.577281203577426 0  0.3527670268164207 0.1320469097565204 0  0.7530364577483248 0.3262386077083089 0  0.4535919187979363 0.4690107087451527 0  0.8824869791666666 0.8336588541666666 0  0.8814453125 0.9451171875 0  0.5582987942628019 0.622421666543858 0  0.6817532446064828 0.6939001801354731 0  0.3830295138888889 0.9450968952922078 0  0.4140603937012541 0.05211333372716105 0  0.5535864501303013 0.3060591985391672 0  0.6560130086346878 0.2729726562211558 0  0.890203140221684 0.5948314305427268 0  0.7043857725999024 0.593980890020804 0  0.5105843922695152 0.8016828014338627 0  0.05365910753708378 0.7315110031682004 0  0.616904573672261 0.4621186633436136 0  0.5338511646455415 0.387875898899613 0  0.5231769258947843 0.4477682463140762 0  0.650302973237622 0.7370722302085519 0  0.3927483139621257 0.4662414504529014 0  0.8034595960585199 0.4972538342758211 0  0.7738337841682438 0.9496376207663251 0  0.7193737507158268 0.954685447650112 0  0.482525916480686 0.5528257169991676 0  0.2533501157346781 0.2809495420003238 0  0.3118487924482243 0.5702930126570319 0  0.6257598847669529 0.4104163315430518 0  0.1354166666666667 0.1955605158730158 0  0.04166666666666666 0.15625 0  0.3956448985530264 0.6174149462065157 0  0.8102897701818546 0.3938784238208349 0  0.2641154190013625 0.8344469561943118 0  0.642852220770013 0.5068794586563659 0  0.05271458179508221 0.355846947336007 0  0.7021551360070266 0.8921457280225779 0  0.5692125776683765 0.1328512638850284 0  0.5206162811937602 0.04865158770992991 0  0.6001838442201555 0.04540556991297563 0  0.2597716608242787 0.4118346398477178 0  0.4040584599473195 0.3179589136784675 0  0.1480337679295207 0.8941560631483065 0  0.1344356707112281 0.9466251177415842 0  0.7114696411829317 0.4983917389078826 0  0.7585704698442475 0.5751926345944629 0  0.2189131956390871 0.04022068508159698 0  0.2476935455192043 0.1123642267635843 0  0.185995005654517 0.1365524537205238 0  0.6223414373308711 0.643380839165121 0  0.5732602596637543 0.7190051747306219 0  0.268358222364537 0.6586246524467934 0  0.3265879848129173 0.2369791782191225 0  0.1267095595787346 0.7034787238999181 0  0.1115202922226038 0.6421997933884982 0  0.3128688392940203 0.07260997451790079 0  0.550724900485678 0.9253360991633187 0  0.7142608810459105 0.2384904702214873 0  0.7045869185243887 0.1871826897887429 0  0.890625 0.734375 0  0.953125 0.765625 0  0.2111812642821677 0.8286209446459138 0  0.9590293078204457 0.09375 0  0.953431269039847 0.1435719386408004 0  0.04097069217955424 0.90625 0  0.04656873096015299 0.8564280613591996 0  0.1078743037981226 0.8541621766048062 0  0.8921256962018773 0.1458378233951939 0  0.8521576979194619 0.1084496634207678 0  0.8655663982740958 0.05464346096571447 0  0.04005659640905543 0.09375 0  0.1001448316533417 0.04246776244228261 
[...]
<PointData  Scalars="f_3269745"> 
<DataArray  type="Float64"  Name="f_3269745"  format="ascii">9.1749626204101598e-01  1.0000621988334470e+00  9.9988653157664675e-01  1.1533356788390776e+00  9.9997727896018496e-01  1.0905827510328818e+00  5.0051330466237454e-01  1.0848092642605502e+00  1.0439448690242739e+00  1.0035683832776692e+00  1.0000976547784126e+00  3.5638246558301145e-01  1.4375683872209479e+00  1.0035754244379425e+00  9.9976844633833295e-01  1.5760562150612578e+00  2.7118668302415698e+00  9.0868003995106772e-01  1.1408487265564509e+00  1.0672789993136953e+00  8.9433282013612192e-01  1.1703017328255463e+00  1.0180967285916522e+00  1.0756270302148880e+00  1.2671862354040024e+00  8.9894278861795873e-01  1.1922874241729611e+00  8.9456324753843741e-01  9.8035638459003915e-01  9.4294498443265740e-01  9.8531698559443626e-01  9.0268091275925932e-01  1.1192493742671432e+00  9.4079232855950123e-01  1.0053492405632289e+00  1.1522082331611470e+00  9.4852135348038835e-01  1.1001522609951442e+00  9.7915043552679604e-01  9.5094461850107626e-01  1.0247131900539281e+00  8.7326576607409512e-01  1.0000341727229922e+00  1.0000803873704138e+00  1.7636120470111361e+00  6.1752021484793262e+00  1.1609875177688684e+00  1.1254098637287098e+00  9.6336870606870029e-01  1.0000018333513747e+00  1.0000339780504721e+00  5.1339764351713646e-01  1.0000321565983314e+00  1.0238914943193449e+00  1.2234920199690216e+00  1.0250668841153652e+00  4.2560509776660110e-01  1.0000265731480893e+00  1.5132458658842334e+00  9.6985831239648967e-01  1.2552355949285856e+00  1.0529189391531197e+00  1.0831048764146889e+00  8.7438928843914054e-01  1.0885225716318123e+00  1.1479999857935863e+00  1.1898310709791593e+00  8.5799456190084256e-01  9.0815039337606263e-01  8.7643820094433500e-01  9.6870412718425114e-01  9.5166722488931632e-01  1.2017712382762633e+00  1.0446971380426406e+00  1.0412484105505897e+00  1.0915482901218980e+00  1.1468294617732055e+00  2.4604704006413436e+00  1.3411244351332410e+00  9.8691068519483138e-01  1.0211978260890699e+00  1.0215087155899389e+00  8.6427909155553695e-01  9.2198098422190933e-01  9.2385002108554481e-01  1.1693964162340325e+00  9.0815204500634461e-01  9.6416194917681475e-01  9.7826865668620577e-01  9.6839967417355133e-01  1.0546363819746341e+00  9.3984712882040422e-01  9.8404789570703854e-01  9.4995690655192933e-01  9.3213218095518335e-01  1.1444683266831484e+00  1.1640807051561730e+00  9.8685899535882582e-01  9.5476071865931500e-01  8.0240372683127781e-01  9.9032338584777180e-01  9.5203307950806271e-01  1.0450999022003877e+00  9.7460435876822782e-01  9.3643250885689422e-01  1.0879616787828787e+00  1.0105073695843239e+00  1.1514989562290008e+00  8.7636073090223920e-01  1.4554754501092937e+00  1.1834079428803492e+00  1.0473884041420169e+00  1.1065922317213124e+00  1.1463517597238564e+00  1.0967884516548252e+00  1.0386483588352406e+00  1.0431418003485766e+00  8.6765568264206405e-01  1.0407018403652297e+00  9.1208612149924662e-01  1.1875175822810944e+00  9.0796728481448108e-01  4.6856128269907380e+00  1.1075499693676363e+00  9.9262461747721686e-01  1.3730040775583472e+00  1.1182664412195094e+00  7.7288328148985042e-01  9.0217543604907879e-01  9.7250581048003604e-01  1.0652964531528015e+00  9.4349750340609939e-01  1.1730389942827324e+00  9.6429434416692927e-01  9.6149048194953723e-01  1.0457790740234549e+00  1.0819430597396862e+00  1.0719710959837743e+00  1.0339566118379588e+00  1.1345478142912280e+00  1.0298943129751732e+00  1.0010834625384666e+00  1.0001353373753394e+00  1.0074589030858772e+00  1.1200540382779651e+00  1.0128405752074234e+00  3.4653120657350374e+00  1.0208253150162672e+00  1.1603204382752508e+00  9.3363665183981770e-01  9.6248009332595197e-01  1.0489480600917325e+00  1.0000633850663292e+00  2.5355738821263230e+00  1.0579153189656190e+00  1.1133265492036151e+00  8.8788079899068251e-01  9.4589028600732239e-01  9.9985335117635754e-01  8.7005403219562816e-01  1.3417797749384448e+00  9.3592964932706046e-01  9.4783711003695381e-01  1.0000742638699769e+00  1.0000814124978639e+00  6.4158906081158018e-01  1.2682027561432827e+00  1.1341398081277501e+00  1.1448778248401743e+00  1.1800186297174167e+00  1.0333800800783570e+00  1.0730504976800990e+00  9.3837432642426444e-01  9.9999019656256538e-01  9.9972840845422495e-01  1.0852169655884776e+00  1.0995477558967071e+00  1.0430146335834451e+00  1.1704775753729415e+00  1.1759456763504015e+00  1.0038486990214537e+00  1.1140997382513991e+00  9.1154917162440630e-01  9.6640540161483812e-01  4.0171120835674040e-01  4.6234715667371185e-01  1.1586699998964818e+00  4.1108104766657594e-01  1.0107594339452934e+00  1.0507648604659603e+00  9.9984203548886585e-01  1.0006309959772262e+00  9.9987683118191939e-01  1.0000242886162407e+00  1.0007790716512015e+00  1.1420749692515839e+00  1.3255210030411313e+00  1.5331489792725286e+00  1.3894835744070217e+00  1.7636143580790307e+00  9.0647734109793221e-01  1.1927659895063798e+00  2.6354548358642784e+00  1.0399157937852959e+00  1.1494353819906122e+00  1.1835641566069734e+00  1.0897123290727306e+00  9.3421431922669396e-01  1.0230210546348206e+00  1.0474727279223690e+00  8.5831480863484255e-01  8.5900131311161465e-01  8.9387908647855407e-01  8.9440840712301584e-01  9.5453587626587655e-01  1.0981615980123833e+00  9.2394187797830052e-01  1.1177225337802492e+00  9.5725345139087537e-01  1.5785427896164375e+00  8.9978929859712098e-01  9.0938172360977598e-01  8.7649406379094730e-01  8.9809445004957744e-01  9.0747380909001407e-01  1.0185899177856783e+00  8.9861523058975312e-01  1.1946217961008756e+00  1.0472290852576760e+00  8.9222628247120972e-01  1.0715295450601261e+00  1.5212614001331461e+00  4.3417451620992011e+00  1.0292410020383866e+00  9.5490790035601281e-01  9.9692075029168192e-01  1.0152401928977852e+00  9.7628819923063159e-01  9.2864968300971318e-01  9.1854425389176086e-01  9.0575390181261206e-01  9.7717322806723494e-01  1.2414125331961736e+00  9.4174204049836374e-01  9.9465164231174785e-01  1.0126415945279015e+00  9.6609572671537924e-01  1.1125484724448635e+00  8.5741362502986129e-01  1.9536686032974020e+00  1.3340859757652079e+00  1.0724945169412721e+00  1.1105204713062078e+00  1.1743084366504306e+00  9.3219504620932703e-01  1.0664699916969334e+00  1.0195636588008425e+00  1.1401035293594513e+00  8.7558186044316799e-01  9.6871413863556088e-01  9.2850612551501510e-01  1.0701608898346007e+00  1.0889389690756235e+00  9.7876312267193510e-01  9.9801892312852136e-01  9.8689830276492907e-01  1.1536159751268644e+00  1.0678975024333839e+00  8.6700413050022929e-01  7.6427752251791492e-01  8.8195381362461078e-01  8.7097406044797632e-01  1.0216383232423647e+00  1.0527465529968640e+00  1.0571794372060910e+00  9.8155380792310376e-01  1.0148452306360534e+00  1.1728363873559038e+00  1.0816467293662997e+00  1.1749124472542603e+00  1.1918295218549206e+00  1.0345289949509600e+00  8.5716197835689090e-01  9.1967196385591343e-01  9.3380203373510962e-01  1.0280333127927339e+00  1.2552253962822679e+00  9.8503244769047749e-01  9.9090335400583351e-01  9.8143588456396491e-01  1.1094559219632947e+00  1.2085542491460546e+00  1.0139484014406774e+00  9.6029933445263582e-01  9.6141666207225263e-01  9.8069492692894855e-01  1.0089258405179866e+00  1.0104018748303891e+00  9.9350036302820399e-01  7.6399135771625681e-01  8.6126872020321787e-01  1.0026051295175311e+00  9.6304969910186422e-01  1.0017335439443411e+00  1.0236138860260455e+00  1.0444031049140847e+00  1.1019257187941998e+00  9.3902759736892705e-01  1.1517782404305743e+00  1.0332004565970467e+00  9.6618035583116491e-01  9.7743484147597504e-01  1.2906085132927265e+00  9.6545819663408017e-01  1.5171124310385726e+00  1.1017337814778012e+00  1.0883102104262647e+00  9.4104433026390355e-01  9.1420851708900774e-01  9.4636398993684956e-01  9.5864727630896751e-01  9.3934824289243835e-01  1.1337846531388602e+00  1.1207775498880579e+00  1.1467293399372309e+00  9.2136643331244861e-01  1.0165517903352650e+00  9.0589508419999221e-01  9.0828058181789750e-01  1.1303397117367009e+00  9.6800371856868594e-01  1.0356645016135773e+00  9.7412297715817509e-01  1.1836281934161199e+00  9.4998430076711082e-01  1.0847113140711957e+00  9.7693766634976642e-01  9.3404609329764954e-01  1.0676043816235599e+00  9.7601396427870679e-01  9.4232789424376728e-01  1.1835582107033942e+00  1.1305415204235039e+00  1.0957811337278096e+00  9.1860550453633127e-01  1.1280070319242552e+00  9.8497503523424867e-01  9.1837298621329466e-01  1.2208123149923713e+00  9.8215167991269603e-01  1.1755075797130894e+00  9.2088019546879663e-01  9.8388672921398468e-01  1.0057696802303460e+00  1.1575815118965942e+00  1.0859118189023700e+00  1.0648552466493522e+00  1.0974978252984020e+00  1.2287052960672991e+00  1.0938513984024243e+00  1.0415977881138707e+00  1.0055575591756059e+00  9.7288165001460714e-01  8.4745611906513119e-01  1.6483899700742606e+00  8.7210269668337581e-01  8.7258217792436732e-01  9.7606444274543303e-01  4.8176914388187564e+00  9.7704458307088493e-01  1.0160375352947981e+00  1.1734759759400215e+00  1.8851617735486281e+00  1.0160505215344420e+00  1.0834658257461178e+00  1.0401770454062480e+00  1.0311819785755518e+00  7.9153224770943198e-01  1.1417592478637466e+00  1.1126304245429732e+00  1.0847346641793851e+00  1.0875419211987865e+00  8.9675273296572788e-01  8.8387645632332656e-01  1.1035421239476457e+00  1.1173144292984776e+00  9.2590472838951710e-01  1.1595992606048078e+00  1.0761423568919963e+00  1.0021706919641871e+00  1.0168215415505348e+00  1.0077604211306628e+00  8.5961756013059698e-01  1.1051965136852731e+00  1.1130243842443166e+00  1.2428404385719345e+00  9.9666596364363724e-01  1.0189589300836877e+00  1.0275918736778249e+00  1.0685367495498650e+00  8.6690845387198523e-01  8.8243248522745343e-01  1.0587060640269907e+00  8.6890637963459283e-01  8.6413644395160838e-01  1.1871637041162892e+00  1.1311404994370342e+00  1.0001549440863096e+00  1.1700066276526204e+00  1.1926253506304219e+00  1.0871280731757440e+00  9.2805696731418452e-01  1.1025199238809198e+00  1.1338638911592833e+00  1.1656117541222846e+00  4.2572736966711960e-01  1.0730790351616344e+00  1.0775369999850042e+00  1.1301942034256387e+00  1.0337172735604083e+00  1.0318541452089109e+00  1.0580291658250496e+00  9.7048965774019380e-01  9.2986771578801375e-01  1.1768693552686160e+00  1.1913861494586711e+00  1.1099694919607255e+00  9.8247433561195052e-01  9.3302076845880211e-01  1.1189826568271248e+00  9.8599862304988739e-01  1.0001230410269140e+00  9.4533125142887453e-01  1.0882498489149057e+00  8.4301232972272222e-01  9.5854621107651661e-01  9.9591701511638564e-01  1.0271061760336333e+00  9.9317347435342740e-01  1.0198630549728949e+00  9.4467978434872613e-01  9.5979793029587279e-01  1.2418581476254633e+00  1.0730528272025668e+00  9.5152660588267723e-01  4.6395302910919005e+00  1.1334234267662875e+00  9.6726726406572172e-01  9.7148533730026387e-01  1.0336286934268970e+00  1.0000282971297512e+00  1.0949883551443733e+00  1.0970823400268921e+00  8.9019877904382072e-01  9.5474242507304707e-01  1.2325557977543233e+00  9.1866751391015811e-01  4.7732764991210980e-01  1.1093072200362259e+00  1.0983827077691763e+00  1.0489800839170658e+00  9.4218576646812513e-01  1.1610680345577686e+00  1.1898787987765185e+00  8.5938404857636985e-01  1.1438774581733342e+00  9.9991676707810939e-01  9.8318126280893436e-01  9.5323502582355280e-01  9.6199542129961135e-01  1.0660509758778736e+00  1.0593234314170683e+00  1.0116445575980673e+00  9.9079860119549823e-01  1.0541313541764601e+00  1.0457471549349273e+00  1.0631813036197237e+00  1.0260406950449810e+00  4.8038864071857806e-01  2.8873757658756545e+00  1.8106476641966431e+00  8.2383887232413988e-01  1.1780222634075967e+00  1.1130820704738720e+00  9.6920369235318282e-01  1.0170987232143818e+00  1.1668833300599117e+00  1.0693162598334911e+00  9.2265604991549344e-01  1.1834204260882744e+00  1.1597893225613289e+00  8.9510879057641446e-01  9.4216071764498921e-01  1.0168065069627004e+00  9.9864557534329468e-01  8.6098552452227506e-01  1.1245852622577466e+00  1.2008472928374010e+00  1.4746569260281583e+00  9.1278584485034409e-01  9.1927969146214505e-01  1.0423021710679941e+00  1.0000820016001861e+00  1.0017461964472905e+00  9.7940138301830670e-01  9.5500552911766146e-01  1.0174163986843483e+00  1.1936296147817744e+00  1.1464180352777267e+00  8.8713091332279348e-01  3.3282459459274043e+00  1.0371168730315656e+00  9.1178381148561582e-01  1.1580525091107812e+00  8.6087997742715294e-01  1.3881443645473579e+00  1.0506211409469572e+00  7.7680070406910529e-01  8.1467389264202494e-01  1.0074125463062888e+00  1.0434302972468004e+00  1.0139415227486759e+00  9.3905208542842389e-01  8.6996786087698597e-01  1.0939656424516382e+00  8.8568047610667522e-01  8.7892789448250241e-01  9.1266299616348834e-01  1.1606355404324669e+00  1.3047528559173507e+00  9.9637092448414033e-01  9.2020689674289380e-01  1.0023856905491080e+00  1.0313831658400803e+00  1.0660686118466540e+00  1.0065039267550593e+00  8.8709958417048573e-01  8.9933599556059340e-01  8.7963010279516629e-01  1.1195109682608848e+00  1.3200460947412556e+00  1.0995702048390446e+00  1.2148898393149192e+00  1.0002051249685302e+00  8.9523814528837187e-01  1.1453899684612776e+00  1.1607536055954737e+00  9.1231908691897567e-01  1.0564320383049806e+00  9.9295738697052294e-01  1.1347241759729831e+00  9.8560641463874510e-01  9.0302180399262633e-01  1.4539210715011304e+00  1.6913578382942513e+00  9.8552622161652870e-01  9.6971008180933194e-01  9.7428032359813388e-01  1.0388071876019813e+00  9.7964521584909037e-01  9.4148915262488153e-01  1.0516074855115682e+00  9.3715899821056137e-01  8.6835109030596491e-01  1.0624827129670504e+00  1.0483091867055503e+00  1.0345902870514008e+00  1.0763264241171568e+00  9.9884651366914112e-01  9.1869951148604023e-01  1.0161936867780883e+00  9.3391881701683233e-01  9.7675477677947053e-01  9.0304265096967362e-01  9.2534625748097366e-01  1.0124917304890522e+00  8.9584356434920065e-01  1.5199050254029640e+00  1.0011120019187210e+00  1.2519482026272204e+00  1.4257057188909636e+00  1.0947881200709038e+00  1.1929998919083238e+00  1.0708600962633670e+00  9.1625086394389688e-01  9.8133625256790380e-01  9.5760501090872296e-01  9.3601652137467328e-01  1.6733194672413532e+00  1.0542056207248336e+00  1.0454877120962283e+00  1.1249280979721583e+00  1.1860566582501364e+00  9.6992776942244519e-01  1.1750410567751934e+00  1.0160854750221175e+00  1.0337881322408677e+00  9.2650214487902904e-01  8.8470874846580783e-01  1.1673630216766595e+00  1.0360274226365058e+00  1.0189087975339564e+00  1.0431175740600385e+00  9.9441461541390119e-01  1.0361011409869481e+00  1.0624006072825296e+00  9.9246928720738115e-01  1.1886538208444763e+00  9.3741153120356924e-01  1.0190884286266764e+00  9.5336629766200587e-01  9.4110677592259606e-01  1.0000328480087206e+00  9.4850621532030466e-01  1.1031284136483086e+00  1.3225552706423935e+00  1.1626187335204137e+00  2.0172852624276381e+00  1.0126593428544577e+00  9.5744464760157755e-01  9.6544196824897810e-01  8.7955786718379392e-01  9.9993918101915424e-01  9.9996828399258297e-01  1.1973843831800206e+00  1.0000197131280828e+00  2.3094241921535463e+00  1.0104624665803348e+00  1.0003158490262551e+00  1.5517790172537316e+00  9.4420945905685660e-01  1.1122938862437355e+00  1.1009304703979059e+00  1.0516229286066285e+00  9.8768008240008398e-01  1.0771074736796054e+00  9.0595158077644899e-01  3.5233880292640039e+00  1.0111571549120317e+00  1.0211577978341233e+00  1.0246752811826070e+00  8.8067716731232348e-01  9.9101222160323188e-01  1.1890611982409423e+00  9.9137980374091117e-01  9.8372338947446658e-01  8.8999880974090306e-01  9.9330248068779070e-01  9.1661307810553672e-01  1.0988356016509389e+00  1.1256325264589975e+00  1.2594179647660946e+00  9.7582686475546154e-01  9.6407258675134588e-01  1.1215799895207630e+00  9.7510399080656862e-01  1.0250242467995481e+00  1.1135683243459407e+00  9.6851928187779912e-01  1.1129116643329442e+00  9.7905934886342516e-01  1.1376342181544337e+00  1.0000131479475991e+00  5.7207038774511902e+00  9.3467462108845079e-01  5.6780049617092780e+00  1.0246484307519568e+00  7.3961947483175272e-01  6.2119208470806886e-01  1.2711968950316195e+00  4.4794898228019447e-01  1.3225806968161506e+00  9.9989417623876342e-01  9.9999162500465788e-01  1.0671458266198151e+00  1.1233743738932604e+00  1.2039689173535011e+00  1.0339321670370585e+00  1.0636872627059246e+00  1.1101776516508426e+00  1.0062931129817803e+00  1.0001253285653982e+00  1.4955395516575836e+00  9.9974195387527398e-01  5.8814571773189772e-01  9.9988528869044857e-01  1.4339890132899442e+00  9.9998192701107125e-01  1.0000854624442916e+00  1.0000061357390186e+00  1.0000591897189772e+00  1.0002458439568982e+00  1.9219593590386563e+00  4.8842480504816838e-01  1.6429101101237318e+00  1.2197658173605068e+00  1.7009594974914068e+00  1.1784506386039095e+00  1.0017773433587833e+00  4.0685710331047636e-01  1.4845091142675955e+00  1.7978904311772523e+00  8.9935235695534776e-01  8.7156608215958964e-01  1.1349040982836747e+00  9.2782425956572578e-01  9.5941775018112541e-01  8.8261263666469958e-01  1.1102500854366155e+00  1.0974017252917747e+00  1.0865977208655142e+00  1.0020628776781764e+00  1.0127864949934644e+00  1.0246112940076606e+00  1.0522380441463781e+00  1.1778787952187431e+00  1.1978402070662151e+00  1.1985157033991460e+00  1.1487889394268631e+00  1.0571668623046970e+00  1.0456192107551614e+00  9.1655147558785710e-01  8.9014774614662195e-01  8.8594096791498866e-01  1.1202082522553150e+00  1.0606434168622154e+00  1.1885740841657582e+00  1.0926855984237231e+00  1.1317946308932421e+00  1.0204563154099766e+00  1.0228910578647450e+00  9.6810055203027445e-01  1.0239971780097750e+00  1.1492967679748476e+00  1.1297101489089543e+00  9.7839803347099674e-01  9.3693406443550176e-01  9.3233664146082973e-01  1.1410088790752193e+00  1.1328705703534467e+00  9.0251281647819426e-01  9.2337861100428686e-01  1.1698825693842805e+00  9.0132219161935534e-01  1.0813333793200171e+00  9.1344817048618443e-01  8.9104744741881536e-01  9.6222946753068239e-01  1.1702284275431614e+00  1.1567576759621803e+00  8.6047153836174173e-01  8.5884780382050629e-01  8.6456954263086083e-01  9.1390804770573431e-01  1.1496758469703356e+00  9.5820846641542989e-01  1.1490400001336616e+00  1.1237172975044758e+00  1.1213627668322554e+00  8.3066773953779860e-01  9.5151513612860450e-01  9.3919863638414947e-01  9.1021284291600146e-01  9.1609330129811395e-01  1.0471337804161522e+00  1.0057383364233596e+00  1.1906843836914709e+00  1.1859962485587703e+00  1.1697132061860107e+00  9.5025350040470891e-01  1.0512724877861723e+00  1.0539592621853027e+00  8.5449351443615862e-01  8.6171641808831256e-01  8.1562567188877089e-01  9.4321129725881148e-01  8.8967693948056814e-01  9.5777991089066283e-01  9.5403903671395662e-01  1.0566226138123807e+00  9.4129229831793393e-01  8.8315624834674056e-01  9.8296384396772507e-01  1.1216298399786317e+00  1.1834046636381637e+00  1.1447331081161063e+00  9.3224722608364419e-01  9.0987528880563462e-01  1.0628664092956455e+00  1.0990586293607942e+00  1.1698791795680996e+00  8.5702479884243887e-01  1.1445411801376815e+00  1.0038788247063202e+00  1.1219880155010318e+00  9.5292411104509833e-01  9.7843340654756772e-01  1.4534385572409219e+00  1.4153358286034852e+00  1.4064345167670678e+00  9.0966850407745004e-01  7.1608414066805071e-01  1.1931197522111274e+00  1.0412089773546627e+00  9.9652678586193633e-01  1.0823350995792635e+00  1.1842657895544955e+00  9.8204753241637743e-01  1.1074111909558189e+00  1.1923209351364654e+00  1.1934325359136244e+00  8.2661993493478425e-01  8.3150112256959197e-01  7.7701668769321830e-01  9.7292639680760051e-01  9.6689105658630159e-01  9.2021518288762361e-01  7.0117064952284869e-01  9.2222651535322353e-01  9.0462841430302732e-01  9.9637508014852028e-01  9.5621778711792482e-01  3.6507101000494933e+00  1.0606755290441106e+00  8.8852655991264073e-01  9.8219315444065514e-01  3.5244905068652166e+00  1.0126625820706503e+00  8.1744753681652427e-01  9.3829170