<?xml version="1.0"?>
<VTKFile type="UnstructuredGrid"  version="0.1"  >
<UnstructuredGrid>
<Piece  NumberOfPoints="2066" NumberOfCells="3980">
<Points>
<DataArray  type="Float64"  NumberOfComponents="3"  format="ascii">0 1 0  0 0 0  1 0 0  1 1 0  0.5 0 0  1 0.5 0  0.5 1 0  0 0.5 0  0.5 0.5 0  0 0.25 0  0.25 0 0  0.25 1 0  0 0.75 0  1 0.25 0  0.75 0 0  1 0.75 0  0.75 1 0  0.7083333333333333 0.2916666666666667 0  0.2916666666666666 0.7083333333333334 0  0.375 0.25 0  0.75 0.625 0  0.2569444444444444 0.4652777777777778 0  0.5366379310344828 0.7535919540229885 0  0.1875 0.1875 0  0.8125 0.8125 0  0.869047619047619 0.375 0  0.1450441919191919 0.6052714646464646 0  0.375 0.8690476190476191 0  0.5526960784313725 0.1825980392156862 0  0.8385416666666666 0.1614583333333334 0  0.1614583333333333 0.8385416666666667 0  0.6736111111111112 0.4652777777777778 0  0.1367521367521368 0.3477564102564102 0  0.6570970491253563 0.8648656830417855 0  0.5102479397556124 0.3386260301221938 0  0.3654513888888889 0.5737847222222222 0  0.6929750044954185 0.1362784921584263 0  0.388576102743835 0.411911725237599 0  0.6091269841269842 0.5942460317460317 0  0.875 0.6875 0  0.427278890279516 0.119889445139758 0  0.8544456845238095 0.5213913690476191 0  0.125 0 0  0 0.125 0  1 0.875 0  0.875 1 0  0.1280008648150532 0.4769292340226777 0  0.2695382451711197 0.3321750950221553 0  0.7031567235715964 0.7447810921428012 0  0.625 0 0  0.375 0 0  0.125 1 0  0.875 0 0  0 0.375 0  0 0.625 0  1 0.375 0  0.375 1 0  1 0.125 0  0 0.875 0  0.625 1 0  1 0.625 0  0.2979288363930608 0.1201429454643536 0  0.410919540229885 0.7484605911330049 0  0.5325041980395562 0.878905151526474 0  0.4831670727569156 0.6331060043826487 0  0.1735997378973042 0.7204747378973043 0  0.2534919507575758 0.5772372159090909 0  0.2633928571428572 0.8876488095238095 0  0.8199404761904761 0.2730654761904762 0  0.75830270586982 0.3919383189517417 0  0.5750282248382511 0.4237522353023667 0  0.6008360210023379 0.2794828358598495 0  0.08163442644334186 0.6821295860397322 0  0.08333333333333333 0.1875 0  0.2028380815996574 0.08844602719988583 0  0.2766521142611967 0.2325436572164097 0  0.90625 0.78125 0  0.890625 0.890625 0  0.7545696325008384 0.8973565441669461 0  0.5625 0.08086590340834317 0  0.09077380952380953 0.09077380952380952 0  0.4610923478694773 0.209034015149656 0  0.7542527598351648 0.5248380520595106 0  0.6459235536037465 0.3619913988405765 0  0.7560381768882634 0.20506142233852 0  0.07073252688172042 0.8125 0  0.0924753097241701 0.9078102849914793 0  0.9292674731182795 0.1875 0  0.9075246902758297 0.09218971500852073 0  0.8125 0.07073252688172045 0  0.2400955776842301 0.7869705776842302 0  0.9121050213379069 0.2781978201831695 0  0.7916878157143976 0.7239689078571988 0  0.9345238095238094 0.4375 0  0.4375 0.9345238095238095 0  0.3725616989755203 0.6651895248862173 0  0.06536271996350887 0.5625 0  0.9348362560379583 0.5625 0  0.456646798987055 0.8277247094351965 0  0.1875 0.9355758238725954 0  0.6169761231634859 0.6939779188977889 0  0.6226854751147515 0.7827911461419014 0  0.3305695598137626 0.7901697871282585 0  0.5865305325818898 0.5101085479043448 0  0.6622701297028378 0.2177663989757395 0  0.1354166666666667 0.2591702279202279 0  0 0.3125 0  0.2094429575680048 0.3936361846162499 0  0.836666296419157 0.607917407161686 0  0.6875 1 0  0.214261555450504 0.6492551722020035 0  0 0.4375 0  0.07731537126068377 0.40625 0  0.3427725432967068 0.4879566233699599 0  0.3550792513951871 0.3331953632609953 0  0.4462473953896857 0.2887834789342508 0  0.4747801464819794 0.417386052030127 0  0.8229836475148948 0.4443292349237342 0  0.7322605135514757 0.8199240278289671 0  0.6756431877205955 0.5468989748126787 0  0.1968419507215863 0.5194573482612496 0  0.3285590277777778 0.9345238095238095 0  0.8125 1 0  0.4198917601920009 0.5134893045331258 0  0.5232405503206691 0.2595791787880157 0  1 0.9375 0  0.1987510870015086 0.3025185951894431 0  0.5625 1 0  0.6005390654136388 0.9228110509230952 0  0.6411254848194414 0.07704872765442942 0  0.3357233162523242 0.1855113224530532 0  0.6730653396610877 0.6393887462324165 0  0.310966987234063 0.6240019765311626 0  0.7368737836204349 0.07457755202327881 0  0.6192316414418171 0.1485238406378594 0  0.5432429670607106 0.678552703844006 0  0.4754371679695679 0.7103946803120881 0  0.07501324890749672 0.3043839897335739 0  0.5358146975860403 0.5688321463205916 0  0.3115271739500156 0.3982137365971444 0  0.3625191397122174 0.0767854603650549 0  0.5024029442563831 0.1264128223758444 0  0.4375 0 0  0.4699946908887376 0.06379961173775725 0  0.9375 0.71875 0  0.9272105898044465 0.635671179608893 0  0.9375 1 0  0.6690971819568612 0.9331530898202766 0  0.1073454944778885 0.7499206387638554 0  0.8699082999280406 0.2232403652524313 0  0.5773118091863964 0.3548027349159383 0  0.1354166666666667 0.1428571428571428 0  0.3125 0 0  0.8241684193077341 0.9257452995055244 0  0.4352314948354036 0.3586940847489378 0  0.4351301473778832 0.5819726043539077 0  0.8073232928518163 0.3419398170341962 0  0.7775949246947366 0.1298519409204575 0  0.6875 0 0  0.7413513991851041 0.457933324954483 0  0.939453125 0.841796875 0  0.5630355154606987 0.8171875156478349 0  0.9345238095238095 0.3461466592368577 0  0.9375 0 0  1 0.0625 0  0.0625 1 0  0 0.9375 0  0.06552178593177167 0.4969053669623468 0  0.1424866619031703 0.4130277709291224 0  0.1275287182444726 0.5422946908002588 0  0.2637686595586339 0.06413888464529549 0  0.2524263535491086 0.1697437503243817 0  0.7367218397988525 0.6888573970660841 0  0.0625 0 0  0 0.0625 0  0.8463594539285995 0.7578283617857982 0  0.3128751192101563 0.2851997374369947 0  0.4015281788351144 0.1806421385113692 0  0.1910251795116588 0.4553332197174453 0  0.287797471442006 0.5222621440543902 0  0.3962628745986055 0.8097380085535307 0  0.3505895299554843 0.7304878890838692 0  0.5019151500495276 0.9356042615328103 0  0.9374389419410134 0.4999931039076005 0  0.3125 1 0  0.1875 1 0  1 0.5625 0  0.4375 1 0  1 0.3125 0  1 0.4375 0  0.8125 0 0  1 0.1875 0  0.5625 0 0  0.1875 0 0  0 0.1875 0  0 0.5625 0  0 0.6875 0  0 0.8125 0  1 0.6875 0  1 0.8125 0  0.8021696218581627 0.6612893947866073 0  0.06154922295426143 0.6239401126946708 0  0.9359375 0.9359375 0  0.4666158024849896 0.7691515918155014 0  0.2318201265217025 0.7064974250277525 0  0.1565954253579966 0.6635489312486841 0  0.1598132503680848 0.7787147500325552 0  0.3146529991605639 0.8510876378205265 0  0.1461873209418733 0.05982804528877814 0  0.06109554988524315 0.2446551776247686 0  0.8054950308560754 0.5564226538848541 0  0.470541749491976 0.8853316336952531 0  0.6948472567465137 0.4042308563372457 0  0.8802828472348889 0.4658893256343853 0  0.6788075634946739 0.7974194205806069 0  0.2155048659603867 0.2428201584940968 0  0.8131223143423806 0.2132171049028394 0  0.4330798005432235 0.6671274900735726 0  0.6015279126162613 0.2187368078743274 0  0.8061636571464289 0.8703766630361714 0  0.7008230445061776 0.3478568388444072 0  0.8638466246958771 0.3147095987735538 0  0.204801534004265 0.8789209409594009 0  0.2449006736431132 0.9424182882803838 0  0.7611268409371427 0.2643056884799992 0  0.7552800864046191 0.7678006649959446 0  0.5983639638906616 0.864113435029236 0  0.1956559506814437 0.577281203577426 0  0.3527670268164207 0.1320469097565204 0  0.7530364577483248 0.3262386077083089 0  0.4535919187979363 0.4690107087451527 0  0.8824869791666666 0.8336588541666666 0  0.8814453125 0.9451171875 0  0.5582987942628019 0.622421666543858 0  0.6817532446064828 0.6939001801354731 0  0.3830295138888889 0.9450968952922078 0  0.4140603937012541 0.05211333372716105 0  0.5535864501303013 0.3060591985391672 0  0.6560130086346878 0.2729726562211558 0  0.890203140221684 0.5948314305427268 0  0.7043857725999024 0.593980890020804 0  0.5105843922695152 0.8016828014338627 0  0.05365910753708378 0.7315110031682004 0  0.616904573672261 0.4621186633436136 0  0.5338511646455415 0.387875898899613 0  0.5231769258947843 0.4477682463140762 0  0.650302973237622 0.7370722302085519 0  0.3927483139621257 0.4662414504529014 0  0.8034595960585199 0.4972538342758211 0  0.7738337841682438 0.9496376207663251 0  0.7193737507158268 0.954685447650112 0  0.482525916480686 0.5528257169991676 0  0.2533501157346781 0.2809495420003238 0  0.3118487924482243 0.5702930126570319 0  0.6257598847669529 0.4104163315430518 0  0.1354166666666667 0.1955605158730158 0  0.04166666666666666 0.15625 0  0.3956448985530264 0.6174149462065157 0  0.8102897701818546 0.3938784238208349 0  0.2641154190013625 0.8344469561943118 0  0.642852220770013 0.5068794586563659 0  0.05271458179508221 0.355846947336007 0  0.7021551360070266 0.8921457280225779 0  0.5692125776683765 0.1328512638850284 0  0.5206162811937602 0.04865158770992991 0  0.6001838442201555 0.04540556991297563 0  0.2597716608242787 0.4118346398477178 0  0.4040584599473195 0.3179589136784675 0  0.1480337679295207 0.8941560631483065 0  0.1344356707112281 0.9466251177415842 0  0.7114696411829317 0.4983917389078826 0  0.7585704698442475 0.5751926345944629 0  0.2189131956390871 0.04022068508159698 0  0.2476935455192043 0.1123642267635843 0  0.185995005654517 0.1365524537205238 0  0.6223414373308711 0.643380839165121 0  0.5732602596637543 0.7190051747306219 0  0.268358222364537 0.6586246524467934 0  0.3265879848129173 0.2369791782191225 0  0.1267095595787346 0.7034787238999181 0  0.1115202922226038 0.6421997933884982 0  0.3128688392940203 0.07260997451790079 0  0.550724900485678 0.9253360991633187 0  0.7142608810459105 0.2384904702214873 0  0.7045869185243887 0.1871826897887429 0  0.890625 0.734375 0  0.953125 0.765625 0  0.2111812642821677 0.8286209446459138 0  0.9590293078204457 0.09375 0  0.953431269039847 0.1435719386408004 0  0.04097069217955424 0.90625 0  0.04656873096015299 0.8564280613591996 0  0.1078743037981226 0.8541621766048062 0  0.8921256962018773 0.1458378233951939 0  0.8521576979194619 0.1084496634207678 0  0.8655663982740958 0.05464346096571447 0  0.04005659640905543 0.09375 0  0.1001448316533417 0.04246776244228261 
[...]
<PointData  Scalars="f_739523"> 
<DataArray  type="Float64"  Name="f_739523"  format="ascii">9.0295796375335025e-01  1.0001736588171675e+00  9.9996629131363168e-01  1.1704896896622117e+00  1.0001495705612602e+00  1.0921540613831233e+00  5.2740435158661803e-01  1.0842604456610234e+00  1.0437547387414225e+00  1.0037522493515978e+00  1.0002544820428398e+00  4.3366459942678209e-01  1.4522260177208750e+00  1.0032090736707879e+00  9.9980588594268549e-01  1.5756981734631172e+00  2.6745815335982730e+00  9.0885348143343314e-01  1.1388541432166004e+00  1.0671875420819401e+00  8.9567761837141402e-01  1.1698546632057856e+00  1.0161190557785182e+00  1.0754807101930983e+00  1.2530562106364176e+00  8.9912886900414213e-01  1.1928837834967330e+00  8.9252858660608925e-01  9.8035150079406186e-01  9.4297986673939271e-01  9.8650925670814527e-01  9.0323772648091050e-01  1.1191222410563872e+00  9.4053298962915977e-01  1.0053856468773128e+00  1.1506782412140002e+00  9.4853932374899286e-01  1.0998360139517460e+00  9.8024947269744955e-01  9.5020086817112948e-01  1.0247744159430545e+00  8.7255722303313232e-01  9.9997014644210247e-01  1.0002265937810657e+00  1.6766029041126769e+00  5.5031733978904711e+00  1.1609855415322829e+00  1.1251287357392128e+00  9.6719398410222690e-01  9.9993247365141968e-01  1.0000707337243531e+00  5.3845922212591191e-01  9.9997813750871922e-01  1.0237683765571859e+00  1.2221274683428813e+00  1.0248787493631681e+00  4.7521261212832033e-01  1.0000183953283279e+00  1.5378613769910872e+00  9.1152255286978268e-01  1.2556718669620512e+00  1.0528638610508079e+00  1.0799060646738727e+00  8.7415722931889572e-01  1.0871001842394814e+00  1.1486274664344795e+00  1.1890182930361335e+00  8.5918342674769355e-01  9.0808119261947640e-01  8.7656330823502937e-01  9.6887142247358526e-01  9.5171493424638720e-01  1.2041870185420134e+00  1.0445520855472783e+00  1.0411723069115553e+00  1.0914861532568922e+00  1.1531788052097394e+00  2.4174639289602573e+00  1.3259366516198448e+00  9.8692906866385466e-01  1.0211348590066935e+00  1.0215013300063449e+00  8.6461152744315128e-01  9.2224796225571204e-01  9.2390382793174208e-01  1.1772883407597958e+00  9.0426919805600814e-01  9.6423354050596666e-01  9.7840121916573441e-01  9.6835971887759986e-01  1.0527396004298790e+00  9.3990035096566926e-01  9.8312056009786075e-01  9.4964880573775534e-01  9.2047222259962391e-01  1.1419925419592003e+00  1.1644108615726962e+00  9.8595278979371570e-01  9.5222520044522541e-01  8.1227329446784680e-01  9.9229086805583888e-01  9.5446105725502317e-01  1.0420913491728403e+00  9.7519894720633393e-01  9.3655861432693854e-01  1.0877534267819868e+00  1.0103648110967423e+00  1.1511896534700818e+00  8.7555777968404680e-01  1.4776652350022423e+00  1.1829438009302389e+00  1.0469223835044812e+00  1.1066307532662520e+00  1.1456791252916803e+00  1.0966297762613013e+00  1.0386067252926225e+00  1.0429980028686028e+00  8.6779836955261092e-01  1.0398746332319075e+00  9.1312992433683482e-01  1.1873938984751407e+00  9.4725207068077333e-01  4.3523744580669916e+00  1.1068516042771874e+00  9.9267166143432795e-01  1.3954271112283292e+00  1.1181283117506950e+00  6.4361527955175346e-01  9.4183207141921865e-01  9.7247771850052156e-01  1.0651830318832110e+00  9.4592239920734345e-01  1.1715369707970620e+00  9.6432380933204764e-01  9.6148926913095711e-01  1.0451923364120161e+00  1.0793697120862493e+00  1.0717383199691506e+00  1.0339807198458506e+00  1.1342490385018043e+00  1.0298512887929219e+00  1.0010964330167713e+00  1.0000184724980010e+00  1.0075762224507241e+00  1.1221717546715742e+00  1.0117780257555922e+00  3.3006222760418051e+00  1.1225816965528022e+00  1.1636254376845421e+00  9.3361121814512971e-01  9.6274585412373659e-01  1.0488883752703477e+00  1.0001877541653281e+00  2.6827143035490915e+00  1.0577751798626605e+00  1.1123112784132019e+00  8.8806332146728550e-01  9.4596111106143232e-01  9.9982767659723126e-01  8.7018149028133018e-01  1.3711615556696031e+00  9.3211563992339097e-01  9.4788931320203962e-01  1.0001718954297150e+00  1.0001841608351889e+00  6.3747616971245413e-01  1.2528755988984450e+00  1.1341554202842274e+00  1.1446691003875202e+00  1.1799728876256110e+00  1.0334408334575409e+00  1.0729311524988201e+00  9.4106028459245983e-01  9.9960896569784496e-01  9.9981635015780046e-01  1.0817265448894284e+00  1.0994920373658139e+00  1.0429872810512573e+00  1.1702206828308073e+00  1.1752978611630960e+00  1.0009514926977028e+00  1.1108829303238454e+00  9.5121028370322269e-01  9.6613212723026420e-01  4.5145223682414004e-01  4.8076167696461714e-01  1.1560194041501466e+00  5.0710863041331677e-01  1.0102794455300428e+00  1.0496673515509323e+00  9.9983889570809725e-01  1.0004179285940185e+00  9.9997080601438926e-01  1.0002477603445601e+00  1.0008795880954160e+00  1.1409470132896589e+00  1.3305075353845015e+00  1.5470701156344855e+00  1.3911821344927191e+00  1.6851577409170861e+00  9.0635601397533039e-01  1.1936017401085550e+00  2.5023046836984686e+00  1.0366627494786735e+00  1.1481478404495307e+00  1.1845579225235388e+00  1.0905909588672187e+00  9.3204290520201327e-01  1.0229953295896674e+00  1.0473205898958629e+00  8.5803293661097790e-01  8.6307730057860199e-01  8.9422682592790048e-01  8.9411627151699236e-01  9.5928603352569430e-01  1.0980915934769258e+00  9.2400259075935154e-01  1.1153975684127586e+00  9.5736506940308808e-01  1.5482494943970226e+00  8.9990977536906269e-01  9.0939640954507561e-01  8.7754562154622373e-01  9.1602734360177962e-01  9.0753319912810171e-01  1.0202851792393377e+00  8.9380519176810103e-01  1.1945740454236369e+00  1.0470792897170607e+00  8.9232480937939163e-01  1.0711247099891053e+00  1.5142640535148264e+00  4.2153193268910014e+00  1.0295069029745576e+00  9.5792545702881471e-01  9.6445858048121025e-01  1.0151924008660671e+00  9.7631841597322366e-01  9.2869425539421546e-01  9.1773597207675239e-01  9.0733181411122754e-01  9.7346772575063012e-01  1.2438484386221578e+00  9.4220105694785883e-01  9.9469218963405193e-01  1.0128218958801689e+00  9.6991631132600908e-01  1.1120878424731391e+00  8.5741550210802497e-01  2.2925309116536217e+00  1.4452443841806215e+00  1.0720506281299556e+00  1.1105089900319502e+00  1.1733118692997764e+00  9.3250011602872185e-01  1.0663966197770978e+00  1.0195625418437884e+00  1.1384437729904187e+00  8.7554395776482574e-01  9.6602041354813173e-01  9.2927096094720207e-01  1.0701799999812986e+00  1.0707854674237323e+00  9.7880238843808798e-01  9.9810766209481405e-01  9.8689134807511880e-01  1.1533907119212503e+00  1.0678260621895719e+00  8.6838461615620188e-01  7.7760720472782630e-01  8.8252521745322099e-01  8.7141236732650174e-01  1.0215855995783176e+00  1.0527356385858482e+00  1.0571504138452874e+00  9.8343851317218223e-01  1.0148919804212024e+00  1.1715645873855041e+00  1.0815911438345538e+00  1.1767787857123433e+00  1.1929983218917555e+00  1.0344348030320096e+00  8.6881403486887165e-01  9.1968989440122872e-01  9.3386766976213265e-01  1.0272531102344689e+00  1.2594096644103139e+00  9.8372925693310453e-01  9.9096990956017650e-01  9.8135229148385261e-01  1.1286553634158387e+00  1.2145671287183608e+00  1.0162934672257067e+00  9.6021065889290425e-01  9.6142764697141547e-01  9.8073814636439671e-01  1.0088153186129216e+00  1.0103017796167331e+00  9.9366142203586072e-01  7.5495985690868850e-01  8.6458677634691616e-01  1.0025754980439900e+00  9.6307750780172019e-01  1.0018185293646471e+00  1.0236250690456021e+00  1.0443376749099800e+00  1.1051373303715095e+00  9.4055187480874114e-01  1.1512934960587802e+00  1.0330655333011032e+00  9.6603841316918859e-01  9.7749660661295079e-01  1.2978547378706440e+00  9.6543331689802880e-01  1.5441590255550419e+00  1.1012007760737890e+00  1.0858078799322703e+00  9.4107943465563926e-01  9.1203249876799009e-01  9.4644988592373680e-01  9.5954709180919118e-01  9.3937458149119479e-01  1.1336522408660674e+00  1.1176673347492740e+00  1.1440128250833230e+00  9.2144588641070724e-01  1.0165018459454080e+00  9.0588301197948029e-01  9.0416158678043412e-01  1.1302130129415997e+00  9.6767110970560843e-01  1.0357070263794588e+00  9.7414725902059762e-01  1.1830175856699694e+00  9.4789172268733157e-01  1.0810724839798151e+00  9.7582028433629264e-01  9.3417278743480037e-01  1.0645066156860357e+00  9.7292240055924606e-01  8.5973041842641873e-01  1.1840367642315330e+00  1.1303596357044303e+00  1.0957924102273562e+00  9.1837052441675415e-01  1.1276199722889324e+00  9.8498298981079091e-01  9.1847160105123682e-01  1.2089564014684573e+00  9.8214734658605585e-01  1.1773207241405459e+00  9.2335951305437447e-01  9.8411500734001212e-01  8.4085495942007971e-01  1.1565997567529231e+00  1.0858182481539869e+00  1.0646125689831396e+00  1.0973493561178218e+00  1.2301342179956241e+00  1.0938718769440430e+00  1.0415727547148947e+00  1.0056321038659659e+00  8.1087265604491165e-01  8.4929548501954588e-01  1.7618351557915837e+00  8.7148323812037354e-01  8.7233877655683612e-01  9.7620040156590271e-01  4.6612697048477578e+00  9.8018893189250922e-01  1.0161449786254615e+00  1.1734893962295119e+00  1.8907605545594410e+00  1.0168306743256945e+00  1.0831691626608713e+00  1.0400663811793209e+00  1.0311721954572564e+00  8.8695464953155534e-01  1.1415667707982768e+00  1.1124056848531487e+00  1.0845539892970195e+00  1.0873263440896568e+00  8.9698276089501527e-01  8.8488154398048802e-01  1.1004876908662800e+00  1.1155196424180553e+00  9.2584660594069434e-01  1.1579290063882848e+00  1.0760021607165744e+00  1.0021509163642159e+00  1.0168837627216860e+00  1.0078305007686257e+00  8.7333137224460167e-01  1.1049482540151097e+00  1.1126217334928818e+00  1.2379586900111510e+00  9.9730907126802848e-01  1.0183464837733687e+00  1.0275275259645815e+00  1.0685193373598627e+00  8.6697037742895866e-01  8.8230232631142969e-01  1.0580365525155802e+00  8.6885834101130943e-01  9.7562185862197048e-01  1.1863575172386638e+00  1.1308390277120532e+00  1.0003622929321732e+00  1.1699159674775925e+00  1.1927658831997761e+00  1.0870483511067033e+00  9.2725451369862200e-01  1.1022441334076858e+00  1.1330851250864717e+00  1.1653099107297504e+00  4.5664057050858647e-01  1.0728625386462516e+00  1.0768596275627005e+00  1.1291137930204316e+00  1.0307353887019373e+00  1.0318372352532572e+00  1.0579468480053704e+00  9.7260979151358495e-01  9.2893350828449617e-01  1.1768004544073305e+00  1.1908963980623226e+00  1.1084031192217283e+00  9.8384831424198416e-01  9.3581548500898504e-01  1.1138322798549933e+00  9.8843833022059302e-01  1.0000404886910710e+00  9.4532124926701755e-01  1.0873491852944364e+00  8.4301618205840279e-01  6.5975409434865562e-01  9.9590903339776793e-01  1.0241586554435056e+00  9.9311184706965139e-01  1.0198135730835627e+00  9.4470036455221573e-01  9.5990457984622113e-01  1.2431829496702396e+00  1.0729459426106462e+00  9.5155310891605593e-01  4.1819699635611247e+00  1.1330062874481719e+00  9.6964636417819772e-01  9.7156756400524269e-01  1.0335811117536082e+00  9.9988776564177062e-01  1.0930467209998433e+00  1.0970615245478563e+00  8.8561205324351056e-01  9.5475512183475586e-01  1.2366900186338381e+00  9.1865109682725254e-01  4.0735267075312920e-01  1.1091207087375701e+00  1.0974844659949510e+00  1.0488665859192741e+00  9.4237633891168970e-01  1.1612944610873954e+00  1.1898818005151193e+00  8.5750138684178390e-01  1.1437603225190116e+00  9.9986852355798006e-01  9.8324949448846266e-01  9.5330088411929559e-01  9.6205779820065462e-01  1.0659539746038078e+00  1.0592671021644031e+00  1.0115609903088552e+00  9.9086191372836141e-01  1.0518963186752313e+00  1.0426548725140516e+00  1.0622959882847876e+00  1.0259645201069441e+00  5.0255387831935261e-01  2.9556231343844650e+00  1.7995350906328451e+00  8.2266487326582105e-01  1.1776722656552998e+00  1.0998622588141511e+00  9.6928602227317473e-01  1.0170602842445877e+00  1.1662596238410068e+00  1.0691878211934065e+00  9.2011070027506858e-01  1.1823307133334247e+00  1.1574504741071558e+00  8.9424084983034846e-01  9.4240290167048746e-01  1.0163211437887159e+00  9.9866213706451190e-01  8.6131282565331357e-01  1.1177664544272286e+00  1.2051824652112724e+00  1.4533057399918430e+00  9.1294099234241644e-01  9.1973012470041593e-01  1.0421764956521755e+00  1.0000738831064753e+00  1.0017238220462306e+00  9.7942874940317759e-01  9.0971058668475280e-01  1.0174911968289593e+00  1.1968775502553906e+00  1.1475303046821290e+00  8.8744302610226833e-01  3.3199266835701482e+00  1.0370758672863112e+00  9.0504331398622517e-01  1.1579478937371344e+00  8.6106284636493402e-01  1.3876101213591707e+00  1.0499864133000225e+00  6.9575625219808446e-01  7.1963044172392643e-01  1.0074151147149524e+00  1.0433769025282849e+00  1.0140422901298090e+00  9.3915809654388582e-01  8.6872373320164264e-01  1.0909905456499538e+00  8.8605182257714143e-01  8.7929243644684052e-01  9.1410243001667402e-01  1.1584757630455733e+00  1.3198033468292822e+00  9.9353370883143477e-01  9.2030706446656751e-01  1.0024179112331690e+00  1.0313776516019151e+00  1.0661356148001422e+00  1.0064495355738574e+00  8.8709489917075313e-01  8.9935406393746431e-01  8.7957851282686961e-01  1.1192278682798802e+00  1.3367790786101066e+00  1.1014247089173905e+00  1.2178380569047291e+00  1.0005028560956621e+00  8.9654663742008900e-01  1.1452496289306888e+00  1.1606161008321523e+00  9.1275672402607611e-01  1.1230167258043442e+00  9.9181724193143628e-01  1.1335315211717814e+00  9.8565414612107927e-01  9.0375291239590527e-01  1.5184477367665146e+00  1.7057253308065223e+00  9.8564786462912490e-01  9.6991050288265102e-01  9.7435179655774928e-01  1.0452330009586637e+00  9.7666947816756045e-01  9.4098012130386266e-01  1.0515237483141897e+00  9.3728742302039758e-01  8.8329446090377139e-01  1.0623788269148489e+00  1.0482335845761264e+00  1.0344497065495430e+00  1.0728133259677570e+00  9.9909169130981124e-01  9.2082498151860237e-01  1.0160192916229660e+00  9.3397720157786157e-01  9.7680232988007920e-01  9.0397401840512071e-01  9.2537785474546297e-01  1.0124761765950989e+00  8.9547505927955040e-01  1.5322173399948686e+00  1.0020978937711056e+00  1.2479267117225021e+00  1.4410922563069946e+00  1.0947630272463948e+00  1.1925989967905248e+00  1.0687691258921843e+00  9.1579232805521116e-01  9.8144728509302415e-01  9.6193573264554866e-01  9.3615374271242091e-01  1.6612435112415846e+00  1.0542100796132825e+00  1.0453436964033644e+00  1.1250740131247101e+00  1.1854250602082217e+00  9.7321000944639668e-01  1.1753930361864289e+00  1.0161053497634152e+00  1.0337423511424022e+00  9.2531267332038503e-01  8.8498183699061017e-01  1.1678375341088556e+00  1.0360342419269533e+00  1.0189795400069526e+00  1.0431617381801770e+00  9.9395847971517348e-01  1.0355791753726802e+00  1.0620685094136424e+00  9.9262499119925995e-01  1.1889868363742910e+00  9.3978729409438932e-01  1.0189690831908154e+00  9.5692741518762314e-01  9.4055922567699413e-01  1.0001680015409555e+00  9.4846248755104323e-01  1.1013891780693927e+00  1.3368768907020006e+00  1.1619098418136340e+00  2.0776903483513287e+00  1.0079649979115042e+00  9.5751438732574379e-01  9.2741564260377762e-01  8.5613509477267835e-01  9.9961896896102431e-01  9.9949630360376862e-01  1.1879794245253585e+00  9.9995785423302630e-01  2.2866051453687271e+00  1.0103330294667141e+00  1.0001488300008130e+00  1.5690612733827114e+00  9.4423000404354085e-01  1.1122374163626425e+00  1.1008026750187021e+00  1.0515342041914519e+00  9.8763147962096220e-01  1.0769759320717778e+00  9.0608310739213094e-01  3.5851433018132175e+00  1.0111931243385950e+00  1.0210755395394859e+00  1.0246732006673578e+00  8.8050473891601566e-01  9.9099244878475934e-01  1.1907862275463885e+00  9.9138216916026989e-01  9.8160050815075373e-01  8.8854772322076025e-01  9.9040625641627833e-01  9.1329163314955530e-01  1.0957613929116297e+00  1.1231361505219961e+00  1.2512610452186659e+00  9.7588874769083989e-01  9.6590293727702836e-01  1.1195268245932293e+00  9.7532287954665275e-01  1.0247568115307646e+00  1.1198773439945977e+00  9.6847202062608662e-01  1.1126551515197534e+00  8.3678826946542706e-01  1.1404812998392322e+00  9.9997153950247109e-01  4.9283208238833254e+00  7.7651100840977805e-01  5.2481423082128158e+00  9.9942525468967203e-01  7.6564710608099329e-01  5.9166486370557092e-01  1.2736184371570596e+00  4.4543938815458800e-01  1.3173592556150124e+00  9.9986441530902104e-01  9.9994870787522183e-01  1.0680317601834746e+00  1.1208580582095289e+00  1.1998616509489335e+00  1.0339561718064043e+00  1.0639166211801969e+00  1.1100297572748474e+00  1.0062553224983661e+00  1.0000665438697858e+00  1.5101942694300798e+00  9.9984684050943351e-01  5.8880003595321928e-01  9.9995847117680081e-01  1.4454445947832364e+00  9.9998490585379207e-01  1.0001513596382714e+00  1.0000036355002406e+00  1.0000388434802097e+00  1.0002201286455394e+00  2.0436781132422372e+00  5.0104282986567850e-01  1.5458696710569280e+00  1.2603547190971673e+00  1.7060355649512917e+00  1.1784416607217483e+00  1.0019324070227102e+00  4.7276653753801773e-01  1.4817260603980951e+00  1.6945211500909683e+00  8.9956485775441464e-01  8.6546855488274310e-01  1.1327220871110510e+00  6.7106045937340753e-01  9.5944445657208510e-01  8.3986297434268564e-01  1.1100739336238745e+00  1.0973182034724920e+00  1.0865119950861213e+00  1.0004097630270379e+00  1.0128210681476997e+00  1.0247711093931249e+00  1.0535318481463130e+00  1.1787789329947493e+00  1.1989876849083259e+00  1.1995400974179364e+00  1.1491909096544286e+00  1.0570714856733925e+00  1.0455003531115428e+00  9.1617348886567873e-01  8.9053049134059792e-01  8.8550149155414215e-01  1.1201061004610628e+00  1.0601801080020665e+00  1.1901532324859345e+00  1.0922411315747493e+00  1.1317852924002760e+00  1.0208319811599809e+00  1.0233710668399776e+00  9.6824752434895300e-01  1.0213663731583913e+00  1.1490179758168493e+00  1.1292750214761000e+00  9.7848375016640332e-01  9.3698368583080538e-01  9.3210488090455779e-01  1.1409787407988621e+00  1.1300997319041091e+00  9.0233447300453806e-01  9.2342859583943515e-01  1.1683597243296513e+00  9.0146889686585108e-01  1.0812405687507574e+00  9.1266527070510706e-01  8.9193340824996969e-01  9.5947630844388687e-01  1.1693425085261033e+00  1.1552348364058735e+00  8.6055475117551661e-01  8.5835245133691129e-01  8.6390120189982844e-01  9.0977414007128266e-01  1.1499710954455373e+00  9.5512666934394508e-01  1.1486047779779118e+00  1.1256636208322364e+00  1.1223810533384913e+00  9.7326637202914668e-01  9.5174617463499400e-01  9.4335968709195195e-01  9.1027610291194216e-01  9.1631316466295898e-01  1.0497494210299969e+00  1.0031034180190126e+00  1.1915531674985662e+00  1.1859826349303311e+00  1.1706415013563785e+00  9.4776477750352939e-01  1.0511441038930440e+00  1.0506051452833516e+00  8.6443097655422185e-01  8.5170498613137924e-01  8.1185498048669036e-01  9.4332341842487455e-01  8.8973064399536839e-01  1.0168703008729305e+00  9.5531068747524450e-01  1.0566059648374104e+00  9.3909426778796889e-01  8.8262388991328078e-01  9.8289739541294918e-01  1.1188753734607739e+00  1.1825199425359876e+00  1.1446583849694307e+00  9.3319739914423605e-01  9.1306321528159040e-01  1.0627563438901257e+00  1.0988885407775435e+00  1.1881866958393508e+00  8.5714704128792751e-01  1.1434940693587807e+00  1.0039298123497362e+00  1.1218910791369274e+00  9.5291561808481262e-01  9.7841991292943542e-01  1.4321438735775924e+00  1.3818230771662430e+00  1.4181737141142741e+00  9.0971379915252770e-01  6.6414922680652044e-01  1.1933681698673748e+00  1.0411398920482569e+00  9.9678664343761014e-01  1.0822945638662664e+00  1.1843082430778433e+00  9.8514561206048101e-01  1.1055380752838144e+00  1.1922152267015644e+00  1.1930976301813423e+00  8.2946125724528852e-01  8.4205792732563756e-01  6.0962586724738010e-01  9.7286369581796117e-01  9.6694314912205348e-01  9.2033471711767267e-01  6.0746069253943979e-01  9.2051521213798804e-01  9.0463062723705312e-01  9.9651510020942857e-01  9.5621551582254305e-01  3.6469596047115926e+00  1.0606017572677189e+00  8.8963603798547142e-01  9.8208709822752893e-01  3.2507529904755414e+00  1.0126057183447650e+00  8.1722702128358282e-01  9.397000540