<?xml version="1.0"?>
<VTKFile type="UnstructuredGrid"  version="0.1"  >
<UnstructuredGrid>
<Piece  NumberOfPoints="3990" NumberOfCells="7722">
<Points>
<DataArray  type="Float64"  NumberOfComponents="3"  format="ascii">0 1 0  0 0 0  1 0 0  1 1 0  0.5 0 0  1 0.5 0  0.5 1 0  0 0.5 0  0.5 0.5 0  0 0.25 0  0.25 0 0  0.25 1 0  0 0.75 0  1 0.25 0  0.75 0 0  1 0.75 0  0.75 1 0  0.7083333333333333 0.2916666666666667 0  0.2916666666666666 0.7083333333333334 0  0.375 0.25 0  0.75 0.625 0  0.2569444444444444 0.4652777777777778 0  0.5366379310344828 0.7535919540229885 0  0.1875 0.1875 0  0.8125 0.8125 0  0.869047619047619 0.375 0  0.1450441919191919 0.6052714646464646 0  0.375 0.8690476190476191 0  0.5526960784313725 0.1825980392156862 0  0.8385416666666666 0.1614583333333334 0  0.1614583333333333 0.8385416666666667 0  0.6736111111111112 0.4652777777777778 0  0.1367521367521368 0.3477564102564102 0  0.6570970491253563 0.8648656830417855 0  0.5102479397556124 0.3386260301221938 0  0.3654513888888889 0.5737847222222222 0  0.6929750044954185 0.1362784921584263 0  0.388576102743835 0.411911725237599 0  0.6091269841269842 0.5942460317460317 0  0.875 0.6875 0  0.427278890279516 0.119889445139758 0  0.8544456845238095 0.5213913690476191 0  0.125 0 0  0 0.125 0  1 0.875 0  0.875 1 0  0.1280008648150532 0.4769292340226777 0  0.2695382451711197 0.3321750950221553 0  0.7031567235715964 0.7447810921428012 0  0.625 0 0  0.375 0 0  0.125 1 0  0.875 0 0  0 0.375 0  0 0.625 0  1 0.375 0  0.375 1 0  1 0.125 0  0 0.875 0  0.625 1 0  1 0.625 0  0.2979288363930608 0.1201429454643536 0  0.410919540229885 0.7484605911330049 0  0.5325041980395562 0.878905151526474 0  0.4831670727569156 0.6331060043826487 0  0.1735997378973042 0.7204747378973043 0  0.2534919507575758 0.5772372159090909 0  0.2633928571428572 0.8876488095238095 0  0.8199404761904761 0.2730654761904762 0  0.75830270586982 0.3919383189517417 0  0.5750282248382511 0.4237522353023667 0  0.6008360210023379 0.2794828358598495 0  0.08163442644334186 0.6821295860397322 0  0.08333333333333333 0.1875 0  0.2028380815996574 0.08844602719988583 0  0.2766521142611967 0.2325436572164097 0  0.90625 0.78125 0  0.890625 0.890625 0  0.7545696325008384 0.8973565441669461 0  0.5625 0.08086590340834317 0  0.09077380952380953 0.09077380952380952 0  0.4610923478694773 0.209034015149656 0  0.7542527598351648 0.5248380520595106 0  0.6459235536037465 0.3619913988405765 0  0.7560381768882634 0.20506142233852 0  0.07073252688172042 0.8125 0  0.0924753097241701 0.9078102849914793 0  0.9292674731182795 0.1875 0  0.9075246902758297 0.09218971500852073 0  0.8125 0.07073252688172045 0  0.2400955776842301 0.7869705776842302 0  0.9121050213379069 0.2781978201831695 0  0.7916878157143976 0.7239689078571988 0  0.9345238095238094 0.4375 0  0.4375 0.9345238095238095 0  0.3725616989755203 0.6651895248862173 0  0.06536271996350887 0.5625 0  0.9348362560379583 0.5625 0  0.456646798987055 0.8277247094351965 0  0.1875 0.9355758238725954 0  0.6169761231634859 0.6939779188977889 0  0.6226854751147515 0.7827911461419014 0  0.3305695598137626 0.7901697871282585 0  0.5865305325818898 0.5101085479043448 0  0.6622701297028378 0.2177663989757395 0  0.1354166666666667 0.2591702279202279 0  0 0.3125 0  0.2094429575680048 0.3936361846162499 0  0.836666296419157 0.607917407161686 0  0.6875 1 0  0.214261555450504 0.6492551722020035 0  0 0.4375 0  0.07731537126068377 0.40625 0  0.3427725432967068 0.4879566233699599 0  0.3550792513951871 0.3331953632609953 0  0.4462473953896857 0.2887834789342508 0  0.4747801464819794 0.417386052030127 0  0.8229836475148948 0.4443292349237342 0  0.7322605135514757 0.8199240278289671 0  0.6756431877205955 0.5468989748126787 0  0.1968419507215863 0.5194573482612496 0  0.3285590277777778 0.9345238095238095 0  0.8125 1 0  0.4198917601920009 0.5134893045331258 0  0.5232405503206691 0.2595791787880157 0  1 0.9375 0  0.1987510870015086 0.3025185951894431 0  0.5625 1 0  0.6005390654136388 0.9228110509230952 0  0.6411254848194414 0.07704872765442942 0  0.3357233162523242 0.1855113224530532 0  0.6730653396610877 0.6393887462324165 0  0.310966987234063 0.6240019765311626 0  0.7368737836204349 0.07457755202327881 0  0.6192316414418171 0.1485238406378594 0  0.5432429670607106 0.678552703844006 0  0.4754371679695679 0.7103946803120881 0  0.07501324890749672 0.3043839897335739 0  0.5358146975860403 0.5688321463205916 0  0.3115271739500156 0.3982137365971444 0  0.3625191397122174 0.0767854603650549 0  0.5024029442563831 0.1264128223758444 0  0.4375 0 0  0.4699946908887376 0.06379961173775725 0  0.9375 0.71875 0  0.9272105898044465 0.635671179608893 0  0.9375 1 0  0.6690971819568612 0.9331530898202766 0  0.1073454944778885 0.7499206387638554 0  0.8699082999280406 0.2232403652524313 0  0.5773118091863964 0.3548027349159383 0  0.1354166666666667 0.1428571428571428 0  0.3125 0 0  0.8241684193077341 0.9257452995055244 0  0.4352314948354036 0.3586940847489378 0  0.4351301473778832 0.5819726043539077 0  0.8073232928518163 0.3419398170341962 0  0.7775949246947366 0.1298519409204575 0  0.6875 0 0  0.7413513991851041 0.457933324954483 0  0.939453125 0.841796875 0  0.5630355154606987 0.8171875156478349 0  0.9345238095238095 0.3461466592368577 0  0.9375 0 0  1 0.0625 0  0.0625 1 0  0 0.9375 0  0.06552178593177167 0.4969053669623468 0  0.1424866619031703 0.4130277709291224 0  0.1275287182444726 0.5422946908002588 0  0.2637686595586339 0.06413888464529549 0  0.2524263535491086 0.1697437503243817 0  0.7367218397988525 0.6888573970660841 0  0.0625 0 0  0 0.0625 0  0.8463594539285995 0.7578283617857982 0  0.3128751192101563 0.2851997374369947 0  0.4015281788351144 0.1806421385113692 0  0.1910251795116588 0.4553332197174453 0  0.287797471442006 0.5222621440543902 0  0.3962628745986055 0.8097380085535307 0  0.3505895299554843 0.7304878890838692 0  0.5019151500495276 0.9356042615328103 0  0.9374389419410134 0.4999931039076005 0  0.3125 1 0  0.1875 1 0  1 0.5625 0  0.4375 1 0  1 0.3125 0  1 0.4375 0  0.8125 0 0  1 0.1875 0  0.5625 0 0  0.1875 0 0  0 0.1875 0  0 0.5625 0  0 0.6875 0  0 0.8125 0  1 0.6875 0  1 0.8125 0  0.8021696218581627 0.6612893947866073 0  0.06154922295426143 0.6239401126946708 0  0.9359375 0.9359375 0  0.4666158024849896 0.7691515918155014 0  0.2318201265217025 0.7064974250277525 0  0.1565954253579966 0.6635489312486841 0  0.1598132503680848 0.7787147500325552 0  0.3146529991605639 0.8510876378205265 0  0.1461873209418733 0.05982804528877814 0  0.06109554988524315 0.2446551776247686 0  0.8054950308560754 0.5564226538848541 0  0.470541749491976 0.8853316336952531 0  0.6948472567465137 0.4042308563372457 0  0.8802828472348889 0.4658893256343853 0  0.6788075634946739 0.7974194205806069 0  0.2155048659603867 0.2428201584940968 0  0.8131223143423806 0.2132171049028394 0  0.4330798005432235 0.6671274900735726 0  0.6015279126162613 0.2187368078743274 0  0.8061636571464289 0.8703766630361714 0  0.7008230445061776 0.3478568388444072 0  0.8638466246958771 0.3147095987735538 0  0.204801534004265 0.8789209409594009 0  0.2449006736431132 0.9424182882803838 0  0.7611268409371427 0.2643056884799992 0  0.7552800864046191 0.7678006649959446 0  0.5983639638906616 0.864113435029236 0  0.1956559506814437 0.577281203577426 0  0.3527670268164207 0.1320469097565204 0  0.7530364577483248 0.3262386077083089 0  0.4535919187979363 0.4690107087451527 0  0.8824869791666666 0.8336588541666666 0  0.8814453125 0.9451171875 0  0.5582987942628019 0.622421666543858 0  0.6817532446064828 0.6939001801354731 0  0.3830295138888889 0.9450968952922078 0  0.4140603937012541 0.05211333372716105 0  0.5535864501303013 0.3060591985391672 0  0.6560130086346878 0.2729726562211558 0  0.890203140221684 0.5948314305427268 0  0.7043857725999024 0.593980890020804 0  0.5105843922695152 0.8016828014338627 0  0.05365910753708378 0.7315110031682004 0  0.616904573672261 0.4621186633436136 0  0.5338511646455415 0.387875898899613 0  0.5231769258947843 0.4477682463140762 0  0.650302973237622 0.7370722302085519 0  0.3927483139621257 0.4662414504529014 0  0.8034595960585199 0.4972538342758211 0  0.7738337841682438 0.9496376207663251 0  0.7193737507158268 0.954685447650112 0  0.482525916480686 0.5528257169991676 0  0.2533501157346781 0.2809495420003238 0  0.3118487924482243 0.5702930126570319 0  0.6257598847669529 0.4104163315430518 0  0.1354166666666667 0.1955605158730158 0  0.04166666666666666 0.15625 0  0.3956448985530264 0.6174149462065157 0  0.8102897701818546 0.3938784238208349 0  0.2641154190013625 0.8344469561943118 0  0.642852220770013 0.5068794586563659 0  0.05271458179508221 0.355846947336007 0  0.7021551360070266 0.8921457280225779 0  0.5692125776683765 0.1328512638850284 0  0.5206162811937602 0.04865158770992991 0  0.6001838442201555 0.04540556991297563 0  0.2597716608242787 0.4118346398477178 0  0.4040584599473195 0.3179589136784675 0  0.1480337679295207 0.8941560631483065 0  0.1344356707112281 0.9466251177415842 0  0.7114696411829317 0.4983917389078826 0  0.7585704698442475 0.5751926345944629 0  0.2189131956390871 0.04022068508159698 0  0.2476935455192043 0.1123642267635843 0  0.185995005654517 0.1365524537205238 0  0.6223414373308711 0.643380839165121 0  0.5732602596637543 0.7190051747306219 0  0.268358222364537 0.6586246524467934 0  0.3265879848129173 0.2369791782191225 0  0.1267095595787346 0.7034787238999181 0  0.1115202922226038 0.6421997933884982 0  0.3128688392940203 0.07260997451790079 0  0.550724900485678 0.9253360991633187 0  0.7142608810459105 0.2384904702214873 0  0.7045869185243887 0.1871826897887429 0  0.890625 0.734375 0  0.953125 0.765625 0  0.2111812642821677 0.8286209446459138 0  0.9590293078204457 0.09375 0  0.953431269039847 0.1435719386408004 0  0.04097069217955424 0.90625 0  0.04656873096015299 0.8564280613591996 0  0.1078743037981226 0.8541621766048062 0  0.8921256962018773 0.1458378233951939 0  0.8521576979194619 0.1084496634207678 0  0.8655663982740958 0.05464346096571447 0  0.04005659640905543 0.09375 0  0.1001448316533417 0.04246776244228261 
[...]
<PointData  Scalars="f_3269730"> 
<DataArray  type="Float64"  Name="f_3269730"  format="ascii">7.8680559850794640e-02  -5.6649265063311860e-07  -2.7911866397308509e-06  3.5336185756358315e-02  -8.8378755814039325e-02  2.1725699198996076e-01  2.2993655161424989e-01  2.0484070148459105e-01  -1.5799316284505011e-01  4.2300124327726597e-02  -3.7999323377267802e-02  -2.3582404167801232e-01  4.6785215551172415e-01  4.3407901735139941e-02  -3.8527288844036840e-02  5.5985959644505323e-01  1.8013235861776027e+00  -5.1275777991110418e-02  2.1699528882241505e-02  -7.5833000419478921e-02  -4.0156651119189118e-02  -4.7903373086361854e-02  -8.0110336814782721e-03  -1.4868363680308076e-02  3.7944879158873401e-01  5.6791871861020429e-02  7.2306370966082556e-02  1.7014296059886699e-01  -7.2483020826198355e-02  -3.5504107912561322e-03  2.0065716106120363e-01  -1.0751812398276800e-01  2.2500469461724081e-02  3.0448332575907522e-01  -1.1587824650992352e-01  -1.0153389490058032e-01  -4.3477640611872800e-02  -1.1276875445362283e-01  -1.5033481263597151e-01  1.8661992738740232e-01  -6.7023941386717731e-02  9.5411085511350233e-02  -4.6899485381939957e-03  4.3678216980623753e-03  6.4416580536944235e-01  1.6401940149014180e+00  5.2525344885701548e-02  -5.0082873778862544e-02  5.6013779390711838e-02  -7.4113890271745531e-02  -7.3466367108749181e-02  -1.8809965817554140e-02  -4.7692299239553487e-03  1.0892121420528335e-01  3.3389773869362582e-01  1.1291611730167703e-01  -1.5191778268177639e-01  4.4787345544224392e-03  5.2604178049402572e-01  8.4294762067462636e-01  3.6362950084987800e-01  -4.6937283696914044e-02  1.7313156359007154e-02  2.1317106142399611e-01  -1.2949999906800091e-01  1.0211782344898100e-01  -2.9507693586345016e-02  1.8775358028615957e-01  4.7478440678576025e-03  -3.0524441358949050e-02  -1.3727363960929834e-01  -8.6598357402983106e-02  1.9627247217587757e-01  1.5237469312809629e-02  -2.4563727678425254e-02  -4.5417455748336305e-02  2.4853873397676254e-01  6.5333909339402729e-01  7.0306726859256152e-01  -6.5804863661982682e-02  -7.7044788147990323e-04  -7.9764793155584227e-02  -4.2575944139518179e-02  -9.4984511628156340e-02  -2.6181020768443815e-02  3.0652184465596860e-01  2.9806023273993776e-01  2.1361796867486099e-02  1.2622679791658513e-04  -1.9377592323412560e-02  1.2178764675874675e-01  4.5118001065712066e-02  9.0265372917957581e-02  1.3550417036494677e-01  9.5669887013181978e-02  -5.7557003498439792e-02  1.5441648375951766e-01  2.3832232624729202e-01  1.2627880857633006e-01  1.1118524296415054e-01  -8.1782927142460896e-02  6.3881578484504389e-02  1.0024365891364097e-01  -1.5669957173762311e-01  -5.7536618984919678e-02  1.0945134429278105e-02  7.2018331366136695e-02  -1.8601385374916450e-02  8.9560518064083175e-02  1.1592355929895084e+00  2.7994535139284436e-02  1.5283409142878240e-01  7.4582129223597596e-02  -9.9355550229046768e-02  -8.5812949619595277e-02  -9.7136735335444896e-02  -1.3702319811991734e-01  3.3657464232244534e-02  3.0523308276632788e-01  -1.1970444141019003e-01  1.6554533791045575e-03  1.1488704224269470e-02  2.4076433811013525e+00  -1.3625921945768252e-01  -9.1934054788763431e-02  3.8269728616672577e-01  -1.4555492052836599e-02  5.2380041094446239e-01  3.3777868232287944e-01  -5.5043198099123947e-02  -5.8289744989958779e-02  -1.0212431744967419e-01  -4.9460452695021480e-02  -3.5788457199787731e-02  -5.8991015945565467e-02  -1.0669790524223159e-01  -5.6349424945059234e-02  4.4651528129568366e-02  -1.6278720860068804e-01  -7.7030220720751996e-02  -6.0013463104664343e-02  -6.9140305716163308e-02  -8.4426806546830463e-02  -7.1256865586746237e-02  3.9567799797296332e-01  2.9683951462073849e-01  1.3735377659056044e-01  5.3962592775171792e-01  1.9569948845012761e-01  1.6454751204988547e-02  -1.1446433211546143e-01  -3.6357538703110687e-03  -5.7139815749107863e-02  1.3397692385577946e+00  -1.1410574381563135e-01  -1.3373921214735709e-01  5.2811852670390045e-03  -2.2889710313773962e-02  -5.7993642901391716e-02  -5.0960893782859444e-02  2.9112380071862237e-01  1.1031048586582912e-01  8.1661546034366969e-02  1.5472246130579120e-03  -1.6116831441246988e-03  4.0002953621814184e-02  4.1986802205437052e-01  1.2150485946368453e-01  2.8554575053302285e-02  7.0251187551851516e-02  -4.0131188825852107e-02  -3.5668933069734260e-02  -7.5758287484791074e-03  1.6226486286555336e-03  -1.4799665414412951e-03  1.6983089347080901e-01  -6.3236063974926468e-02  -6.9591386609189870e-02  -2.2026017350423514e-03  -6.4256061586298333e-02  1.1042721229113660e-01  1.8084940383655986e-02  2.1462981716229967e-01  1.8522060798263873e-01  -2.3725173179318310e-01  -1.4285460511695272e-01  2.8501731200710223e-01  6.6480191442188613e-02  7.4192415548344243e-02  1.6024684418400084e-01  -1.9605485841153947e-02  2.0006877869518491e-02  -8.4763885132519354e-02  -1.9092880860175628e-02  1.9613973557371930e-02  2.6637580648744769e-01  4.0282304905933763e-01  5.2024019887226614e-01  4.5527676235671222e-01  6.5601990389759901e-01  4.1434225854970530e-02  1.9653514473091538e-01  1.5693258317732411e-01  3.0726156794903082e-02  5.1977997506129504e-02  8.5033929083753637e-02  1.5590315273511346e-01  1.6993954491854360e-01  -1.2694412042141206e-02  3.2879573854081093e-02  2.8091804993854993e-02  1.8422182686487454e-01  -7.9206998109791385e-02  1.0425302325776781e-01  1.5069361485795760e-01  -2.3051871903629405e-02  -4.9781832062021384e-03  -8.5132823077669117e-02  -7.2170018557593696e-02  7.2785635304188989e-01  -6.4168867348126379e-02  3.5458443421776530e-02  2.0585425673189522e-01  -1.8672997148035754e-02  -2.4227549906540909e-02  1.6929591246258593e-01  2.3123952862330285e-01  1.5555745766539125e-02  -5.8153975265596985e-02  -3.0622946126627772e-02  -1.4383797614815946e-01  3.0398877752419173e-01  1.4218713040409892e+00  -1.4783045046691251e-01  -4.6765826849082801e-02  -3.1107597457687080e-02  -6.9231426008263444e-02  -1.0275295644958909e-01  -6.9145087763596985e-02  1.9184358117446354e-01  -9.4496926870377571e-02  7.8025510265709835e-02  2.9008570821095858e-01  -1.3636146105765365e-01  -1.3104738787303985e-01  -1.4921628829504155e-01  -4.0135100052891195e-03  -1.2234857275252867e-01  1.8473052228486223e-02  1.2042321304292996e+00  8.8422914989272205e-01  -1.5574644035904189e-01  -3.9403159936125372e-02  -7.0628132820228423e-02  -1.1778959876178531e-01  2.7885043233224173e-03  1.4092305285743340e-02  -1.0097951207433474e-01  1.3430568483098098e-02  1.6462518105872809e-01  -1.3496671411377256e-01  7.1890977038609805e-02  5.0312107902624159e-01  -6.4952098578150735e-02  -7.3157508786338768e-02  -6.5836908617900480e-02  -4.9529233207219768e-02  -9.6918249213980595e-02  2.3137549960599610e-01  1.7061869163217630e-01  -8.4354835846729079e-02  -3.7565049246641335e-02  -2.9446692561142584e-02  -3.4973253953878222e-02  -1.7658714744562522e-02  -1.2513464584517220e-01  -5.9759070477063865e-02  -3.4513960937562335e-03  -6.1495211913050012e-02  1.4005272081960868e-01  1.2800369295701589e-01  -5.0986906470867975e-02  2.7119741142135595e-01  -4.2790890090418317e-02  -4.2311090125627393e-02  2.2557634133918847e-01  4.8134143953101644e-01  1.7123421474898348e-01  4.3482105368084839e-03  1.2751032093141977e-02  4.0741213499200019e-01  3.9201484536018744e-01  2.6091377402045868e-01  6.3229415747701155e-03  -7.4782192391549887e-03  -9.8198863614713042e-03  4.0127791578685864e-03  -5.1157817023466173e-03  -8.8811400590010448e-04  2.3436191649425672e-01  1.6743806132370889e-01  2.5437295283190810e-05  -4.5200255253696239e-02  -7.4741108739624154e-02  -7.1673240060019294e-02  -7.8920413961598074e-02  2.1496069130076259e-01  -1.3014363857953840e-01  -7.8475990789921235e-02  6.2714996841219065e-03  3.8765543518454522e-02  -2.9641117320945314e-02  3.6664733940873512e-01  6.5726799692661320e-02  2.0117069858183645e-01  1.1075783701729566e-01  7.8347353862453256e-02  -9.5639859042667058e-02  1.7387399319563782e-01  -5.2654731874535822e-02  -1.5164648290946950e-01  -3.2613058383533802e-02  -5.9732278853380028e-03  -2.5782992699849665e-02  -1.7298184713670058e-02  2.5658357500149730e-02  -6.0408817673076952e-02  9.0773334558384836e-02  1.5570589607576357e-01  8.3626846737139868e-02  1.1512276109514855e-01  5.0665350243163751e-02  -5.9896377091222995e-02  -3.4812941224968183e-02  9.9187126377858634e-02  2.0049679247986293e-01  2.8706437029430609e-02  -1.5080877230222422e-02  6.2017824527453601e-02  1.4289488071602660e-01  1.2307386349454209e-01  1.0860766697162566e-01  1.8331679117378097e-01  3.0714058314931025e-01  1.6666426929520117e-01  -9.7101350624840307e-02  -5.7961992129970656e-02  -7.6173176686902835e-02  5.1309596742950037e-01  -4.3670216123212376e-02  3.8686229904716019e-01  1.7044714304426964e-01  -1.5210242279501546e-01  -2.3127648803987955e-01  -9.5645149026058682e-02  -4.8374888007739914e-03  1.7774700191027080e-02  2.3641225353737305e-02  2.8392571522475918e-01  1.4390257893741618e-01  2.3894395263182144e-01  1.7743655668307562e-01  2.9084278720767076e-01  3.0582568465764876e-01  1.9016571765186750e-02  1.0186937456348578e-01  1.1308721379947782e-02  -8.1132214900723032e-02  2.0952329240511642e+00  2.8881021752438091e-01  -1.6350191566467911e-01  2.2768109401899339e-01  7.3206555804416540e-01  -1.2375855426066114e-01  -1.2974122046355069e-01  -1.2463413595935037e-02  -1.2467562405427314e-01  4.7959598482331178e-01  -4.0420775732791445e-02  -6.8759793100057393e-02  -7.8173037309817894e-02  -1.0358449114022483e-01  -9.0623342695687961e-03  -8.1125079131186495e-02  -4.1366030427788518e-02  -1.1721400038052671e-01  8.7877310905061110e-02  -7.8879439612052349e-02  -4.7482085315124690e-02  -8.3070842134110187e-02  -9.1923586482705114e-02  -1.0288876175360025e-01  1.6664028148918267e-01  5.0180640322465005e-02  -9.3841532950151907e-02  2.2652158722454693e-01  -1.6145690090272796e-01  3.1059078830013592e-01  2.5285709048000655e-02  9.8187536393714886e-02  -9.2692913275427558e-03  5.0880020806285363e-02  -1.5061128340755298e-01  6.5258773807913534e-02  4.6072609805029008e-01  -9.3236527963117283e-03  -2.7528687707623338e-02  1.0188867904631898e-03  6.4051866770638205e-02  3.8094132138476587e-02  -3.2575065798900155e-02  1.5497689284866600e-01  -8.0673292549360495e-03  -1.1706183743951312e-01  -2.9135472916027371e-02  -1.8019680623491230e-01  2.8347301921368202e-02  -1.5026553700767528e-01  -1.2378758124948408e-01  6.6185883274663765e-02  -1.1045693524156029e-01  -8.7840284986032996e-02  6.5429772770891667e-02  3.3756394219802216e-01  2.0846642377482027e-02  -1.6787075438107861e-02  8.0753518452600426e-02  -1.6410631610918588e-02  -6.1469541728936664e-02  3.1968358004461706e-01  1.6392575063400952e-01  -4.7649267408589747e-02  9.2547965559048942e-03  -1.4513596341355176e-01  9.8918427529781403e-02  -1.8203877007161356e-01  -6.8190976192069680e-02  1.2514213551385642e-01  -7.1934218513467138e-02  -4.9427949370572863e-02  3.1133072124302080e-02  -5.0524806426861836e-02  2.8402767014186925e-01  -1.2147115182246100e-01  -3.5987632216954842e-02  6.8347683422821048e-01  -6.1231170825869707e-02  -9.1613860362226546e-02  -9.0277336870809813e-02  -6.2770633744960946e-02  -4.1957914939013899e-04  -9.7489279446221350e-02  1.0658632683449319e-01  2.7374472805350936e-01  -1.6058897948585268e-02  3.8563179812803866e-01  6.0820389191441691e-02  -2.3672969599933147e-02  4.2069544921006091e-03  -1.4464128759268122e-01  6.3587564803481766e-02  -7.0031322394173756e-02  8.4714134831154142e-02  3.2437838392438800e-02  1.2841085032418229e-01  5.6886916327386714e-03  -1.1426883316609232e-02  -1.6773092995026256e-02  -6.2244072670393578e-02  -2.6836934607460762e-02  -6.6739005977048585e-02  -5.2487396045355426e-02  -6.8701340848740008e-02  -7.0103300156114393e-02  -6.2947903048383796e-02  -1.1890134672883414e-02  -1.2968103730702796e-01  -2.0976002905733905e-02  -9.5417028681285834e-02  1.2543412961753995e+00  1.0042692071203183e+00  1.7574193641637195e-01  -2.2424461454385976e-02  9.7002992153674994e-01  -6.6069498681833080e-02  -6.8040817223701755e-02  -6.8527515814533702e-02  -2.4785721112822231e-02  1.8849806004590963e-01  -3.9082438278740916e-02  -4.9384484396798975e-02  9.4230993466844465e-02  -1.1263555608591684e-01  9.2573826575789636e-02  2.6841617247182559e-01  -2.7593477887646000e-02  4.8880498192321575e-01  2.6765560175448377e-01  4.3658238436590879e-01  -9.8224932896178712e-03  -1.1704876543533990e-01  -1.4746105586800870e-01  -1.1157757932750105e-02  3.0726439827190685e-02  2.8283140123831506e-02  -4.4212150287609303e-02  -6.5544859076095072e-02  2.0706611355099241e-01  1.4349969836252768e-01  -5.5747002249252144e-02  1.8200638952489203e+00  -6.5679929411204430e-02  1.5140700437658902e-01  -6.3558436463868027e-04  1.6359141593854298e-03  4.4052934806703470e-01  1.4754732684804808e-01  -1.7511164362922585e-01  -2.3950322283694689e-01  -7.5037910457887588e-02  -5.3597491720180912e-02  -1.5747845949545314e-01  6.0875836831040350e-02  1.7767414705160314e-01  5.7587504607713988e-02  -7.9512396101173527e-02  -5.5652320150511449e-02  -7.0319466336578621e-03  -1.1727069056129311e-02  4.0493737005356489e-01  1.4855276103521092e-01  1.0091192108493725e-02  -7.7211804957873220e-02  -8.5689524652590929e-02  -4.4364115013687637e-02  5.7809671923064875e-02  2.8164411760676768e-02  1.2769186936551505e-02  -9.0514388101804004e-03  -7.7992333947947426e-02  5.0024268091202295e-01  3.3467474476332837e-01  4.3206708742504923e-01  -1.0367063785148799e-03  1.6561645493708799e-01  5.1100593249034446e-02  2.3439918369086862e-02  -9.8068259764388585e-02  7.5885133855012554e-01  4.2520212217986814e-01  -1.1733668922667075e-01  -4.2023404754034091e-03  -1.1266570101741308e-01  4.9618582598164052e-01  2.4490755924328780e-01  -1.1927127209885871e-01  -1.2726821592314391e-01  7.1145706036434336e-03  3.1950417367156914e-01  5.0037035906475354e-02  9.3272882197182411e-02  -6.2775347799996717e-02  3.8232058983293848e-02  1.1902519183084107e-01  -9.2907316367207386e-03  5.7300702976235329e-03  -4.0083253435456694e-03  -3.6056837296942722e-03  3.6141599337760150e-04  -8.3923023388268694e-02  8.9485369778460083e-02  2.5164830198053179e-03  5.2447939393784067e-02  3.3591482157678909e-01  -5.6262725367281885e-02  -7.0166922912212548e-02  1.7889829212016881e-01  1.7395541348983529e-01  -1.4337109527520939e-01  6.9306324053907098e-01  5.5261134614542107e-01  4.0278871449589367e-02  6.8787164899903018e-03  -9.9075062081804763e-02  1.4471766255566595e-01  9.9134604093824422e-02  6.4493519269400057e-02  -8.2687280013477096e-02  6.0818472538946655e-01  -2.6335784506139843e-02  -1.6184098346634826e-01  4.8006483647630584e-02  -4.2586304720727129e-02  -5.4146642562779713e-02  4.9934070981101739e-02  -1.3962248070580921e-01  -7.5176153351250552e-02  1.9069030265089107e-01  -3.4574704022942007e-02  1.0853067095552951e-01  -3.2023411178608539e-02  -3.7907101914901570e-02  -4.4242332681835674e-02  1.5052559521110581e-01  1.3566250846826411e-01  -1.5688778660124633e-01  -1.4040303635212290e-01  6.9298570140219770e-02  2.1747984671199710e-01  7.7951016458594358e-03  1.8354872307607894e-03  1.5000978444311758e-01  -7.9764994775923748e-02  2.0450779526610369e-02  1.9195621090263792e-01  2.3034485889697826e-01  -8.4681074420254146e-02  9.6141778505883257e-01  1.2327035207931407e-01  -9.8221315830879202e-02  1.3913608539433131e-01  2.3818701929720540e-01  1.0828282012160016e-03  -1.1026571729679667e-03  2.4992122629646238e-01  -8.7589754689917379e-02  2.4837878525004967e-01  5.6653660920263276e-04  1.1256244157891561e-02  5.3271245557234048e-01  -1.3121982311197841e-02  -5.2834584780518487e-02  -5.0624036027220064e-02  -1.0548965665385522e-01  -6.6160031522067952e-02  6.8986872808419050e-03  -8.1920235501652908e-02  2.1478129356639584e+00  -9.4557556033175640e-03  -6.4932031293373381e-03  -6.4485342281950783e-02  6.8986031656847371e-02  -6.6697567024339233e-03  1.4229802544257583e-01  -7.7515416740289764e-02  1.1437664854789835e-01  1.3636007371018502e-01  1.3961847029333929e-01  1.7070199828792046e-01  1.8305175213898083e-02  2.2743685355524287e-02  4.6242436970792333e-01  -4.8565660963551117e-02  -1.3537190085261788e-01  5.4796830530189411e-02  2.1065331232617443e-01  2.0882063124742745e-01  3.1455260930158863e-01  1.3567791820132050e-02  1.6008563124639033e-01  4.1299077097378140e-01  3.4712577052695764e-01  -8.7184922715873747e-02  6.6861142006305962e-01  7.1547950778857550e-01  2.2282857810963810e+00  2.4860621845986025e-01  3.3271390569149795e-02  3.6789247932278268e-01  3.6835360670474498e-01  -2.8713538786676140e-01  4.0845163916881794e-01  -4.8472228330961001e-02  -6.6517338964359213e-02  1.8732513596814077e-01  2.5076690071440594e-01  3.2403582088049010e-01  1.3001182905450345e-01  1.7820101647724626e-01  2.3474061634602589e-01  5.6414139245542352e-02  -6.5832946989511448e-02  4.9871629670044965e-01  -2.8811039680115211e-02  4.7428311472956883e-02  -3.7653169643716888e-04  4.9667942887537742e-01  1.3989248218017653e-04  -2.8318432138589492e-02  -8.0262940540240080e-02  3.5942650208081365e-04  1.0901895314549628e-02  1.4097380140424913e+00  1.4053932660773297e-01  5.6037247511916388e-01  1.7889174708855674e-01  -1.4809838126655071e-02  2.9868664938075734e-01  2.9975959194563147e-02  -1.8736343423209023e-01  5.0635210362984140e-01  6.7133634031874156e-01  -2.6036295000691184e-02  1.9564895694886941e-01  -8.4470006314879581e-02  -2.6989052720984408e-01  -8.1130507332816640e-02  1.9086645645345027e-01  -2.4791181422921030e-02  -3.5055448125463538e-02  -2.1270168012252105e-02  2.6258811896320716e-01  -1.7611660285558585e-02  3.5281105928944879e-02  1.8966084967645913e-01  1.7437757479447455e-01  1.7916623368300547e-01  2.5600517368864717e-01  1.4030847960024717e-01  4.0283995863827041e-02  2.3646013544002812e-02  1.1725926719035183e-01  -3.6781042403935511e-04  1.0782250300552035e-01  -3.1201904096275743e-02  2.7006113886914113e-01  1.3897282139247583e-01  -1.3413787684825490e-01  2.5938811843650690e-02  -1.5912045518273088e-01  -9.7255368752024979e-02  -7.1539855795251309e-02  1.0527751688917872e-01  -6.7692513694717127e-02  -1.0674547998269926e-01  1.9914822766529540e-02  -2.4090558713416411e-02  1.0881810176505020e-01  -2.1512372137988758e-02  -1.8228531097266781e-02  4.3721059337200864e-02  4.0044158543811471e-02  -7.1281159510667616e-02  -9.7164267381330910e-02  -7.0335569064085168e-02  1.6031647483492251e-01  -9.7678247763957476e-02  2.4889241031739628e-01  2.5067523610181146e-02  2.0790354053659459e-02  -1.6548671265780988e-02  4.6859099513621494e-02  4.6666677063165900e-02  1.8146969535119203e-01  2.0881114112466667e-01  1.1210576061799929e-01  7.5331401395700756e-02  1.7225490856262030e-01  1.2732242883479367e-01  3.3046360365625338e-01  -1.2528148674981415e-01  1.2809771316664567e-01  -3.9084476644265648e-02  -3.0148727586530286e-02  2.2735868816740601e-01  7.9312871978436922e-02  8.7967433108312981e-02  5.2724351665165585e-02  9.3417967772350369e-02  1.4999603020823327e-01  -1.2728693866869009e-01  6.0926856217168611e-02  1.6903539789752384e-01  1.9843690475419351e-01  1.9322740524646123e-01  1.9589333064099454e-01  2.1588464620936496e-01  4.1776336430886651e-01  -1.4519738596253254e-01  -7.3599345600675589e-02  2.2453381173279008e-01  4.3630919017676253e-02  8.1793959407469197e-02  -5.6229154706953458e-02  -5.0629740836621070e-02  8.8489648339254171e-02  -1.3759327595548698e-01  2.4500804673218307e-01  -3.1534879742461337e-02  -7.3441094197424228e-02  6.7129901305850892e-01  -5.6147645781667544e-03  -1.1062685330425372e-01  -6.9326854751324843e-02  -2.4927447037676933e-03  -2.9354114913876964e-02  -2.2872640821201301e-02  5.4866632975490559e-01  6.9868941816208396e-01  5.5868055441936182e-01  1.9540736806578460e-02  6.4797323118172379e-02  4.1446922000259331e-02  -1.3117584709787833e-01  -1.5920324881647960e-01  -5.2742494568914486e-02  2.6020329752256158e-02  2.2846067975104151e-01  -1.0955818235768669e-01  6.6053621237348141e-03  -8.2629843338564834e-03  1.3104348633232354e-01  8.0850277560963565e-02  -3.347659483000504