<?xml version="1.0"?>
<VTKFile type="UnstructuredGrid"  version="0.1"  >
<UnstructuredGrid>
<Piece  NumberOfPoints="2066" NumberOfCells="3980">
<Points>
<DataArray  type="Float64"  NumberOfComponents="3"  format="ascii">0 1 0  0 0 0  1 0 0  1 1 0  0.5 0 0  1 0.5 0  0.5 1 0  0 0.5 0  0.5 0.5 0  0 0.25 0  0.25 0 0  0.25 1 0  0 0.75 0  1 0.25 0  0.75 0 0  1 0.75 0  0.75 1 0  0.7083333333333333 0.2916666666666667 0  0.2916666666666666 0.7083333333333334 0  0.375 0.25 0  0.75 0.625 0  0.2569444444444444 0.4652777777777778 0  0.5366379310344828 0.7535919540229885 0  0.1875 0.1875 0  0.8125 0.8125 0  0.869047619047619 0.375 0  0.1450441919191919 0.6052714646464646 0  0.375 0.8690476190476191 0  0.5526960784313725 0.1825980392156862 0  0.8385416666666666 0.1614583333333334 0  0.1614583333333333 0.8385416666666667 0  0.6736111111111112 0.4652777777777778 0  0.1367521367521368 0.3477564102564102 0  0.6570970491253563 0.8648656830417855 0  0.5102479397556124 0.3386260301221938 0  0.3654513888888889 0.5737847222222222 0  0.6929750044954185 0.1362784921584263 0  0.388576102743835 0.411911725237599 0  0.6091269841269842 0.5942460317460317 0  0.875 0.6875 0  0.427278890279516 0.119889445139758 0  0.8544456845238095 0.5213913690476191 0  0.125 0 0  0 0.125 0  1 0.875 0  0.875 1 0  0.1280008648150532 0.4769292340226777 0  0.2695382451711197 0.3321750950221553 0  0.7031567235715964 0.7447810921428012 0  0.625 0 0  0.375 0 0  0.125 1 0  0.875 0 0  0 0.375 0  0 0.625 0  1 0.375 0  0.375 1 0  1 0.125 0  0 0.875 0  0.625 1 0  1 0.625 0  0.2979288363930608 0.1201429454643536 0  0.410919540229885 0.7484605911330049 0  0.5325041980395562 0.878905151526474 0  0.4831670727569156 0.6331060043826487 0  0.1735997378973042 0.7204747378973043 0  0.2534919507575758 0.5772372159090909 0  0.2633928571428572 0.8876488095238095 0  0.8199404761904761 0.2730654761904762 0  0.75830270586982 0.3919383189517417 0  0.5750282248382511 0.4237522353023667 0  0.6008360210023379 0.2794828358598495 0  0.08163442644334186 0.6821295860397322 0  0.08333333333333333 0.1875 0  0.2028380815996574 0.08844602719988583 0  0.2766521142611967 0.2325436572164097 0  0.90625 0.78125 0  0.890625 0.890625 0  0.7545696325008384 0.8973565441669461 0  0.5625 0.08086590340834317 0  0.09077380952380953 0.09077380952380952 0  0.4610923478694773 0.209034015149656 0  0.7542527598351648 0.5248380520595106 0  0.6459235536037465 0.3619913988405765 0  0.7560381768882634 0.20506142233852 0  0.07073252688172042 0.8125 0  0.0924753097241701 0.9078102849914793 0  0.9292674731182795 0.1875 0  0.9075246902758297 0.09218971500852073 0  0.8125 0.07073252688172045 0  0.2400955776842301 0.7869705776842302 0  0.9121050213379069 0.2781978201831695 0  0.7916878157143976 0.7239689078571988 0  0.9345238095238094 0.4375 0  0.4375 0.9345238095238095 0  0.3725616989755203 0.6651895248862173 0  0.06536271996350887 0.5625 0  0.9348362560379583 0.5625 0  0.456646798987055 0.8277247094351965 0  0.1875 0.9355758238725954 0  0.6169761231634859 0.6939779188977889 0  0.6226854751147515 0.7827911461419014 0  0.3305695598137626 0.7901697871282585 0  0.5865305325818898 0.5101085479043448 0  0.6622701297028378 0.2177663989757395 0  0.1354166666666667 0.2591702279202279 0  0 0.3125 0  0.2094429575680048 0.3936361846162499 0  0.836666296419157 0.607917407161686 0  0.6875 1 0  0.214261555450504 0.6492551722020035 0  0 0.4375 0  0.07731537126068377 0.40625 0  0.3427725432967068 0.4879566233699599 0  0.3550792513951871 0.3331953632609953 0  0.4462473953896857 0.2887834789342508 0  0.4747801464819794 0.417386052030127 0  0.8229836475148948 0.4443292349237342 0  0.7322605135514757 0.8199240278289671 0  0.6756431877205955 0.5468989748126787 0  0.1968419507215863 0.5194573482612496 0  0.3285590277777778 0.9345238095238095 0  0.8125 1 0  0.4198917601920009 0.5134893045331258 0  0.5232405503206691 0.2595791787880157 0  1 0.9375 0  0.1987510870015086 0.3025185951894431 0  0.5625 1 0  0.6005390654136388 0.9228110509230952 0  0.6411254848194414 0.07704872765442942 0  0.3357233162523242 0.1855113224530532 0  0.6730653396610877 0.6393887462324165 0  0.310966987234063 0.6240019765311626 0  0.7368737836204349 0.07457755202327881 0  0.6192316414418171 0.1485238406378594 0  0.5432429670607106 0.678552703844006 0  0.4754371679695679 0.7103946803120881 0  0.07501324890749672 0.3043839897335739 0  0.5358146975860403 0.5688321463205916 0  0.3115271739500156 0.3982137365971444 0  0.3625191397122174 0.0767854603650549 0  0.5024029442563831 0.1264128223758444 0  0.4375 0 0  0.4699946908887376 0.06379961173775725 0  0.9375 0.71875 0  0.9272105898044465 0.635671179608893 0  0.9375 1 0  0.6690971819568612 0.9331530898202766 0  0.1073454944778885 0.7499206387638554 0  0.8699082999280406 0.2232403652524313 0  0.5773118091863964 0.3548027349159383 0  0.1354166666666667 0.1428571428571428 0  0.3125 0 0  0.8241684193077341 0.9257452995055244 0  0.4352314948354036 0.3586940847489378 0  0.4351301473778832 0.5819726043539077 0  0.8073232928518163 0.3419398170341962 0  0.7775949246947366 0.1298519409204575 0  0.6875 0 0  0.7413513991851041 0.457933324954483 0  0.939453125 0.841796875 0  0.5630355154606987 0.8171875156478349 0  0.9345238095238095 0.3461466592368577 0  0.9375 0 0  1 0.0625 0  0.0625 1 0  0 0.9375 0  0.06552178593177167 0.4969053669623468 0  0.1424866619031703 0.4130277709291224 0  0.1275287182444726 0.5422946908002588 0  0.2637686595586339 0.06413888464529549 0  0.2524263535491086 0.1697437503243817 0  0.7367218397988525 0.6888573970660841 0  0.0625 0 0  0 0.0625 0  0.8463594539285995 0.7578283617857982 0  0.3128751192101563 0.2851997374369947 0  0.4015281788351144 0.1806421385113692 0  0.1910251795116588 0.4553332197174453 0  0.287797471442006 0.5222621440543902 0  0.3962628745986055 0.8097380085535307 0  0.3505895299554843 0.7304878890838692 0  0.5019151500495276 0.9356042615328103 0  0.9374389419410134 0.4999931039076005 0  0.3125 1 0  0.1875 1 0  1 0.5625 0  0.4375 1 0  1 0.3125 0  1 0.4375 0  0.8125 0 0  1 0.1875 0  0.5625 0 0  0.1875 0 0  0 0.1875 0  0 0.5625 0  0 0.6875 0  0 0.8125 0  1 0.6875 0  1 0.8125 0  0.8021696218581627 0.6612893947866073 0  0.06154922295426143 0.6239401126946708 0  0.9359375 0.9359375 0  0.4666158024849896 0.7691515918155014 0  0.2318201265217025 0.7064974250277525 0  0.1565954253579966 0.6635489312486841 0  0.1598132503680848 0.7787147500325552 0  0.3146529991605639 0.8510876378205265 0  0.1461873209418733 0.05982804528877814 0  0.06109554988524315 0.2446551776247686 0  0.8054950308560754 0.5564226538848541 0  0.470541749491976 0.8853316336952531 0  0.6948472567465137 0.4042308563372457 0  0.8802828472348889 0.4658893256343853 0  0.6788075634946739 0.7974194205806069 0  0.2155048659603867 0.2428201584940968 0  0.8131223143423806 0.2132171049028394 0  0.4330798005432235 0.6671274900735726 0  0.6015279126162613 0.2187368078743274 0  0.8061636571464289 0.8703766630361714 0  0.7008230445061776 0.3478568388444072 0  0.8638466246958771 0.3147095987735538 0  0.204801534004265 0.8789209409594009 0  0.2449006736431132 0.9424182882803838 0  0.7611268409371427 0.2643056884799992 0  0.7552800864046191 0.7678006649959446 0  0.5983639638906616 0.864113435029236 0  0.1956559506814437 0.577281203577426 0  0.3527670268164207 0.1320469097565204 0  0.7530364577483248 0.3262386077083089 0  0.4535919187979363 0.4690107087451527 0  0.8824869791666666 0.8336588541666666 0  0.8814453125 0.9451171875 0  0.5582987942628019 0.622421666543858 0  0.6817532446064828 0.6939001801354731 0  0.3830295138888889 0.9450968952922078 0  0.4140603937012541 0.05211333372716105 0  0.5535864501303013 0.3060591985391672 0  0.6560130086346878 0.2729726562211558 0  0.890203140221684 0.5948314305427268 0  0.7043857725999024 0.593980890020804 0  0.5105843922695152 0.8016828014338627 0  0.05365910753708378 0.7315110031682004 0  0.616904573672261 0.4621186633436136 0  0.5338511646455415 0.387875898899613 0  0.5231769258947843 0.4477682463140762 0  0.650302973237622 0.7370722302085519 0  0.3927483139621257 0.4662414504529014 0  0.8034595960585199 0.4972538342758211 0  0.7738337841682438 0.9496376207663251 0  0.7193737507158268 0.954685447650112 0  0.482525916480686 0.5528257169991676 0  0.2533501157346781 0.2809495420003238 0  0.3118487924482243 0.5702930126570319 0  0.6257598847669529 0.4104163315430518 0  0.1354166666666667 0.1955605158730158 0  0.04166666666666666 0.15625 0  0.3956448985530264 0.6174149462065157 0  0.8102897701818546 0.3938784238208349 0  0.2641154190013625 0.8344469561943118 0  0.642852220770013 0.5068794586563659 0  0.05271458179508221 0.355846947336007 0  0.7021551360070266 0.8921457280225779 0  0.5692125776683765 0.1328512638850284 0  0.5206162811937602 0.04865158770992991 0  0.6001838442201555 0.04540556991297563 0  0.2597716608242787 0.4118346398477178 0  0.4040584599473195 0.3179589136784675 0  0.1480337679295207 0.8941560631483065 0  0.1344356707112281 0.9466251177415842 0  0.7114696411829317 0.4983917389078826 0  0.7585704698442475 0.5751926345944629 0  0.2189131956390871 0.04022068508159698 0  0.2476935455192043 0.1123642267635843 0  0.185995005654517 0.1365524537205238 0  0.6223414373308711 0.643380839165121 0  0.5732602596637543 0.7190051747306219 0  0.268358222364537 0.6586246524467934 0  0.3265879848129173 0.2369791782191225 0  0.1267095595787346 0.7034787238999181 0  0.1115202922226038 0.6421997933884982 0  0.3128688392940203 0.07260997451790079 0  0.550724900485678 0.9253360991633187 0  0.7142608810459105 0.2384904702214873 0  0.7045869185243887 0.1871826897887429 0  0.890625 0.734375 0  0.953125 0.765625 0  0.2111812642821677 0.8286209446459138 0  0.9590293078204457 0.09375 0  0.953431269039847 0.1435719386408004 0  0.04097069217955424 0.90625 0  0.04656873096015299 0.8564280613591996 0  0.1078743037981226 0.8541621766048062 0  0.8921256962018773 0.1458378233951939 0  0.8521576979194619 0.1084496634207678 0  0.8655663982740958 0.05464346096571447 0  0.04005659640905543 0.09375 0  0.1001448316533417 0.04246776244228261 
[...]
<PointData  Scalars="f_739493"> 
<DataArray  type="Float64"  Name="f_739493"  format="ascii">1.2064571621143287e+00  9.9982503749427798e-01  1.0000317036966244e+00  9.0215866753852070e-01  1.0153675594775196e+00  1.0013561544444289e+00  2.5881676151291555e+00  9.9906154108653689e-01  1.0231958625103632e+00  9.9961633941186112e-01  1.0025045005504873e+00  4.0943304539555747e+00  9.9441389340259267e-01  1.0003681096299817e+00  1.0030796455834845e+00  1.0287839095915108e+00  2.2239444393422430e+00  1.1209759582012557e+00  9.3452276979175275e-01  9.5398685863817156e-01  1.2283551647834114e+00  8.8710750578881847e-01  1.0031575268960664e+00  9.3463590038451216e-01  1.0498977861116219e+00  1.1382779826460709e+00  8.9432671893702698e-01  1.3355311167292248e+00  1.0343189163278999e+00  1.0639186415933084e+00  1.2066996505911307e+00  1.1712870141453740e+00  9.0656974516250277e-01  1.2277831505408521e+00  1.0282677721673796e+00  9.2152509265441263e-01  1.0622604743610109e+00  9.4722234942138261e-01  1.1085178909207083e+00  1.2685073147569246e+00  9.8689919034615303e-01  1.2272060420143713e+00  1.0000303072516432e+00  9.9979041216259801e-01  1.0037018504449922e+00  1.0704572593396471e+00  8.9167060774658624e-01  9.0730397758396808e-01  1.1110149578783830e+00  1.0109541874443106e+00  1.0106268259903417e+00  3.4058204213558367e+00  1.0000257010603899e+00  9.9933836915021113e-01  9.9848094324747050e-01  1.0002881277373041e+00  3.2699112107366761e+00  9.9999237068959412e-01  1.0156020941120627e+00  2.1277282258477852e+00  1.0066528969649420e+00  9.5657955910579962e-01  9.6771554660399139e-01  1.2981176288634189e+00  9.8292991302274613e-01  9.5401083469250436e-01  8.8598490483450609e-01  1.5333022338884070e+00  1.1131889565602862e+00  1.1764499740693499e+00  1.0864020146048841e+00  1.0744238425100403e+00  9.4529876985680161e-01  9.5921623709010873e-01  9.6283585984673237e-01  9.2728471560892434e-01  1.1861651174322203e+00  6.9243282853121124e-01  1.3939009471980075e+00  1.0240000411593346e+00  9.7959348741187025e-01  9.9492722570832581e-01  1.2356747852600114e+00  1.1217811910382922e+00  1.0916643381528162e+00  1.0701521865929720e+00  1.4915965875321568e+00  1.0391161357907528e+00  1.0224065208800792e+00  1.0343547466997705e+00  1.0530286924623584e+00  1.0727304332452188e+00  1.1541843423047782e+00  1.1002185800009188e+00  1.9845666077685249e+00  9.2568374931199060e-01  9.2614420530793395e-01  1.1454240916899083e+00  1.1036548723129462e+00  2.2504002267667982e+00  1.0686262336980217e+00  1.0664733393900676e+00  1.0388510334267440e+00  1.1017313763881329e+00  1.0821802272368120e+00  9.2569876470965440e-01  9.9974539626609105e-01  8.8940297380473576e-01  1.2728638487294628e+00  2.0584086087358657e+00  9.0096398500951902e-01  9.9892324083106043e-01  9.2451381115322173e-01  9.1602782840211494e-01  9.3639156062537321e-01  9.8665084456404784e-01  1.0057081648033463e+00  1.1985143647649172e+00  1.1671877523600611e+00  1.1834948187883849e+00  8.7829033733213380e-01  2.2220036243290666e+00  2.0711018172799669e+00  9.5918103656362275e-01  1.0290130182067383e+00  9.3423197047583428e-01  9.0622117991622553e-01  2.3217401807580940e+00  1.5552064870059266e+00  1.0365499369003772e+00  9.4976193341645987e-01  1.1513677897473196e+00  9.0352102029875503e-01  1.0412476205408805e+00  1.0510908138108874e+00  1.0138820751707027e+00  9.6759399900175336e-01  9.4114424793957119e-01  1.0443749944408123e+00  9.1065510982285203e-01  9.7944944032321335e-01  1.0108764509223609e+00  1.0141041748107567e+00  1.0040518753090233e+00  1.2060965497886598e+00  1.1924657819244264e+00  6.1710222607114640e-01  1.5822077395655123e+00  9.9219559452703332e-01  1.0767658440018415e+00  1.0764662110904670e+00  9.5516428178822543e-01  1.0061969715422341e+00  1.6417843244633865e+00  9.7883394290133097e-01  9.6011205446699333e-01  1.1481267422175740e+00  1.0615478646874252e+00  1.0067640780028786e+00  1.2050673891881258e+00  1.1134818750163551e+00  1.0746985273970597e+00  1.0735233240389339e+00  9.9982977088454239e-01  9.9981904809026223e-01  2.1603155398477560e+00  1.0903898593421022e+00  9.2557100942922210e-01  8.9392147717576520e-01  8.9111786230513257e-01  9.7165865451413069e-01  9.3880623554644260e-01  1.1674367591099528e+00  1.0003890726867801e+00  1.0001866275964202e+00  1.1204176423244396e+00  9.2644736856348697e-01  9.7166845686479086e-01  8.8164927973047258e-01  8.9219536435729896e-01  1.0699175794790121e+00  9.5137849997686463e-01  1.8312146541415604e+00  1.1167522316798193e+00  3.7674914591641468e+00  3.9940155134674913e+00  1.0046719856179491e+00  2.9118000383745497e+00  1.0003481243406127e+00  1.0007567846144361e+00  1.0008499351529589e+00  1.0003024177066473e+00  1.0142934174864857e+00  1.0004088961831448e+00  9.9980877676284741e-01  9.9833294607102419e-01  9.9737686838599326e-01  9.9941962286218211e-01  1.0164980462676478e+00  1.0462629356491546e+00  1.2445062207045214e+00  9.3738626059829122e-01  6.1147114037757655e-01  9.9188288439118100e-01  9.3597523663581894e-01  9.1321988822965483e-01  1.0385850177201461e+00  1.2577085388298759e+00  9.7816546568700213e-01  9.5857125659562259e-01  1.2594182220325154e+00  1.3879699857378851e+00  1.1627443541748892e+00  1.1747769105024082e+00  1.1172287391587878e+00  9.1939254335292486e-01  1.0894464576058993e+00  9.4801312399442139e-01  1.0609161911450897e+00  1.2865390720996557e+00  1.1420312942587358e+00  1.1147089555063696e+00  1.4434065496230428e+00  2.5088177034073023e+00  1.1161054123934240e+00  1.1124459381371781e+00  1.2120947214128035e+00  8.8211923011978621e-01  9.6431218908277971e-01  1.1436407323579394e+00  9.8774195422340072e-01  8.6156999594605144e-01  1.0134656950904677e+00  1.0483187180447080e+00  1.1237669271173025e+00  2.3500657075775995e+00  9.9551566670475578e-01  1.0527287077104783e+00  1.0976533769659438e+00  1.2332384227625652e+00  1.2018667636990961e+00  1.0388706876011944e+00  9.8234965713849443e-01  1.1264050020489875e+00  1.0497399728084538e+00  1.0447032402005996e+00  1.0793601454093296e+00  9.4556016408575283e-01  1.2323782816742128e+00  1.8554575115301066e+00  1.7708043648787755e+00  1.0009561206838657e+00  9.1369657571076346e-01  8.9976441991786538e-01  1.1228340761431568e+00  9.4110786716720807e-01  9.8140699515077057e-01  9.3328412901545743e-01  1.1745196535353939e+00  1.1973847452029642e+00  1.1537544900511287e+00  9.4854870958492865e-01  1.3461812295288462e+00  1.0331802737305977e+00  1.0139172179970724e+00  1.0233118955390961e+00  8.9321229775350752e-01  9.6213025067719382e-01  1.5181438356037771e+00  2.3135800571778864e+00  1.2053446618483414e+00  1.2465161015539559e+00  9.8085163681772869e-01  9.5446038798476152e-01  9.4900146423384535e-01  1.1000485883979478e+00  1.0246985540051998e+00  9.0605770172750699e-01  9.3836031498879002e-01  9.4564998874163997e-01  9.1571069656995341e-01  9.7297768123052275e-01  1.6436452531567527e+00  1.1014822407658518e+00  1.0812075499311118e+00  1.2458160129516918e+00  1.1758103616760802e+00  1.1813101473108094e+00  1.0091810938023613e+00  1.0195472587430419e+00  1.2347094148654321e+00  1.1191979536884435e+00  1.2262108654590589e+00  1.0429363889055092e+00  1.0415679820975436e+00  1.0200817406791371e+00  9.9132116156591887e-01  9.8989152427110561e-01  1.0063953191606363e+00  2.1428086287138735e+00  1.4536980471160696e+00  9.9742562306086491e-01  1.0447913624795833e+00  1.0123594794192965e+00  9.8986208400529441e-01  9.7389000637011680e-01  1.0667309463602639e+00  1.1575424912486212e+00  9.0345515559284084e-01  9.6882858732002908e-01  1.0392846801918536e+00  1.0253089905669621e+00  1.0114018151790525e+00  1.0462340979015012e+00  9.4598225639209621e-01  1.0000052029615412e+00  9.9403425379274246e-01  1.0935921566242699e+00  1.2692328534045538e+00  1.0675536114830320e+00  1.1279237420204060e+00  1.0716106315709202e+00  8.9724371378489320e-01  9.4098071768097424e-01  9.2492472496001865e-01  1.0946918252432130e+00  9.9137378882968508e-01  1.1422653389174977e+00  1.1632523368014234e+00  9.1383496308373924e-01  1.0634875813516314e+00  9.7143169251863470e-01  1.0364612173523673e+00  8.8197217966110653e-01  1.2275727288925244e+00  1.0829069427769251e+00  1.0336169274959977e+00  1.0760439469245078e+00  9.9475890271273082e-01  1.1443817245899119e+00  2.3797219850141298e+00  9.0344934964346213e-01  9.5608423554202293e-01  1.0827236458549956e+00  1.1847959141219746e+00  9.2276319457923883e-01  1.0228915222611830e+00  1.1164284463744498e+00  1.2438814073285485e+00  1.0225640257469200e+00  1.0965770160982313e+00  1.1243183739242242e+00  1.0813407811838665e+00  3.0186344156147817e+00  9.1217802021276384e-01  9.2675362165651476e-01  9.4313491016114315e-01  9.2014292697025701e-01  9.6755638996249616e-01  9.5905947678472414e-01  1.0702300261209574e+00  1.0578553199978906e+00  2.1931711684882904e+00  1.5602866511946960e+00  7.2870548438551519e-01  1.2539228454318807e+00  1.2625932637212820e+00  1.0424295319110717e+00  1.6644891863997477e+00  1.1874164428939356e+00  1.0579191826910146e+00  9.5785102247108667e-01  1.0593277173700690e+00  1.0543396753827812e+00  9.6864792574681535e-01  9.6292556994103040e-01  1.0082878309214036e+00  1.9905778301000530e+00  8.9663543066901175e-01  9.2002127698721825e-01  9.4183450372166178e-01  9.5083813932084671e-01  1.1320412876042276e+00  1.2204262143402973e+00  9.5180536614165889e-01  9.5505131773120588e-01  1.1074121964947314e+00  9.1530934168911693e-01  9.3877234871770621e-01  1.0152939351942141e+00  1.0043953272278439e+00  1.0186008934049102e+00  1.5643702774760417e+00  9.1955533402798151e-01  9.2965952300627919e-01  1.0215804370014949e+00  1.0862345954558648e+00  1.2321937685349542e+00  9.7492525975327671e-01  9.5813188969782026e-01  1.1964122581868777e+00  1.1690377049772944e+00  1.0174404231327239e+00  1.2115240553605904e+00  1.7570015506192560e+00  8.9238344068069131e-01  9.0022635342157564e-01  9.9964181255960027e-01  9.2143350579893246e-01  8.9148267505290779e-01  9.2808397707715085e-01  1.1989955112672446e+00  9.1572865077777821e-01  9.3253670715341785e-01  8.8490614777441268e-01  4.1051407410106737e+00  9.3785619021469380e-01  9.8948032723872392e-01  9.4108069209132683e-01  1.0114754265923163e+00  9.9939496509843484e-01  9.6606130656583522e-01  1.1365654726976002e+00  1.3457952815209813e+00  8.8124299666533257e-01  8.8033700999258413e-01  9.7834270311758698e-01  1.0472946278817699e+00  1.1671514330301538e+00  1.1248720651290252e+00  1.1223421326276088e+00  1.0044257140536503e+00  1.0610786607644351e+00  9.8636783596587907e-01  1.9447859460807420e+00  3.0447902586027915e+00  1.0154852224144233e+00  1.0797166422168663e+00  1.0185125114363323e+00  9.8573849013763359e-01  1.0639063265174231e+00  1.0502164174703477e+00  9.6788457456142885e-01  9.7096436913028861e-01  1.0567113731663162e+00  6.3516395021999006e-01  9.0596830312481380e-01  1.1106139252780169e+00  1.0518944804344541e+00  9.7731714781617440e-01  1.0001027610464843e+00  9.6793184585843761e-01  9.4131179637151696e-01  1.3707002102074399e+00  1.0499853438076825e+00  1.1973527884345148e+00  1.1073651341789275e+00  3.1325576330575755e+00  9.1134826988528450e-01  9.7292287584887505e-01  9.6312301175877502e-01  1.0791373522073566e+00  9.0026134781791389e-01  8.8152195927298649e-01  1.7252267574735396e+00  8.9232966460993424e-01  1.0003491686544783e+00  1.0177834655030857e+00  1.0621847826591309e+00  1.0424660876191851e+00  9.5180586015004598e-01  9.5282355063671353e-01  9.9998753600315704e-01  1.0220209311107955e+00  9.8974600264860668e-01  9.8529650987053108e-01  1.0062922942159267e+00  9.7597959654438526e-01  3.7404138184685594e+00  1.2728482082560952e+00  1.5536158667749820e+00  1.7789240610592472e+00  8.8063175378664360e-01  2.0732793126912301e+00  1.0444146710990856e+00  9.9401507733089034e-01  8.9473167678928900e-01  9.4018231591614199e-01  1.3116212653281845e+00  8.9382321953557209e-01  9.1466648566994790e-01  1.2719956218605020e+00  1.1030901002083311e+00  1.0003737954236884e+00  1.1676511180631286e+00  1.2253215065948406e+00  1.2873392339841934e+00  1.0069057001322983e+00  9.7364168215113922e-01  1.1059711721825116e+00  1.1453890427393552e+00  1.0144674078231755e+00  1.0001189300648616e+00  1.0000384019991870e+00  1.0228712106741615e+00  2.5536669390836919e+00  9.9200910504296747e-01  9.6508087969033840e-01  9.7582715655420893e-01  1.1625078423283244e+00  1.9173803200897674e+00  9.7541050146848596e-01  1.1325324944818687e+00  8.8598595969285732e-01  1.2149440217077294e+00  9.9652583704903830e-01  1.0762586981280295e+00  3.1858681798941815e+00  3.2696622418717602e+00  1.0046728485079517e+00  9.6606733474949635e-01  1.0516963271956039e+00  1.0779620656516085e+00  1.4814602060336262e+00  9.7861808924967986e-01  1.1829073514671318e+00  1.1814165404334314e+00  1.2142305816329224e+00  9.1531231060879858e-01  1.0372011912273407e+00  1.2174398896732497e+00  1.0949095062198750e+00  1.0103959973961432e+00  9.8811674451136000e-01  9.4553282355454438e-01  1.0000616662417861e+00  1.1526154982871626e+00  1.1279203246937473e+00  1.1654449752702654e+00  9.1919363832499434e-01  1.1042935622977861e+00  1.2466187738597394e+00  1.1177435280603172e+00  9.9950064529660032e-01  1.2501335501593072e+00  8.9776925684764353e-01  8.8661745160606487e-01  1.1405131237901354e+00  1.8083403706898833e+00  1.3787361633276940e+00  9.3873950372077297e-01  1.0147252024479136e+00  1.1812281446482431e+00  1.0549566029171020e+00  8.0371852661124932e-01  1.0518888063387324e+00  1.0765662471990567e+00  1.0269356885378234e+00  1.2477798899786672e+00  1.0279053581163133e+00  1.0685224312539630e+00  9.6212394295125314e-01  1.1977350437142109e+00  1.8288684930854533e+00  9.4437212950118676e-01  9.5576117869010979e-01  9.6758150655901443e-01  9.6809971527734462e-01  1.0009064760209740e+00  1.1881105054512542e+00  9.9963299400338745e-01  1.0756281735363735e+00  1.0298428285000845e+00  1.5570629764613713e+00  1.0973064508330790e+00  9.9991224771903775e-01  1.1625360968431822e+00  8.9124998056086069e-01  1.0800787553694242e+00  1.4787950571849213e+00  1.1191332985342028e+00  9.2410547602347626e-01  8.8698275524678327e-01  9.8829659175002882e-01  1.1651594777861181e+00  1.0398069932486078e+00  1.0952032673833287e+00  1.0934340804117559e+00  1.0332038209404291e+00  9.5212651140045002e-01  1.0273183135250967e+00  9.0701285700238032e-01  8.8526858648331797e-01  1.0917851926032065e+00  8.8631318500890055e-01  1.0332309752155131e+00  9.8189219815727391e-01  1.2019222320682614e+00  1.1592517790359442e+00  9.0641078286261412e-01  9.6816486133031732e-01  9.8439656493942662e-01  9.6404833957719049e-01  1.0525941273870145e+00  1.0005106045827206e+00  1.0136813079010001e+00  1.0594480554680947e+00  8.9050708045763816e-01  1.1502155811472046e+00  9.8169538995400729e-01  1.1314502148788650e+00  1.1249538383590389e+00  1.0124136134322876e+00  1.0578897824862599e+00  1.1592364343385184e+00  1.0624593863920309e+00  9.0363845905078632e-01  1.3808162386810428e+00  1.1601393609723578e+00  1.0731142883379909e+00  1.8982453596983657e+00  1.5413197523629907e+00  1.0003838889337171e+00  1.0005061944682152e+00  1.0419411457296963e+00  1.0152840734244886e+00  6.2380384697451496e-01  9.8981839795615301e-01  1.0000482031447813e+00  1.0033872338974237e+00  1.0627618228722546e+00  9.1549899913463562e-01  9.2218330326017683e-01  9.7946850426454324e-01  1.0237599650661577e+00  9.3323831735130502e-01  1.1408165139002806e+00  2.2316363561592105e+00  9.8915070226578017e-01  9.7972154986569326e-01  9.8554352929670130e-01  1.1816640253834345e+00  1.0091970741898471e+00  9.2953201950213282e-01  1.0242890095328472e+00  1.0780126221251143e+00  1.2253381319040542e+00  1.1244903783790052e+00  1.2984358721660973e+00  9.5983377245810897e-01  9.4536081274056416e-01  1.1567003482842306e+00  1.0306918714510358e+00  1.1264481027039122e+00  9.5826032383946214e-01  1.1299574937749102e+00  1.0614486279108903e+00  1.1387394250027048e+00  1.0337290739140288e+00  9.5501554676193257e-01  2.0942323587081000e+00  1.0845077398229386e+00  1.0151686581527235e+00  7.3355227546387680e-01  2.2016583232245672e+00  1.6389174671440845e+00  1.1750882150284003e+00  1.4876656078110444e+00  2.4458798606585539e+00  9.9711471270526153e-01  3.9626110658247948e+00  1.0114810562271648e+00  1.0047169263338076e+00  1.0088700138052211e+00  1.0015753767735815e+00  1.0028749448728271e+00  1.0065237881335376e+00  9.9943018568119857e-01  9.9880478525897909e-01  9.9898981699944678e-01  9.9987422839262630e-01  1.0085189848956262e+00  9.9551887545732709e-01  1.0017358578973268e+00  2.8426261775020483e+00  1.0000339899215116e+00  1.0459093562971227e+00  1.0000049651428711e+00  1.0013572749687469e+00  1.0127328984147046e+00  9.9995441681720432e-01  9.9996747750478487e-01  2.1412364926563194e+00  2.7325110846555005e+00  9.7655280626482621e-01  8.9925077078498361e-01  7.2559920588437310e-01  9.9917688705244134e-01  9.9971190722487568e-01  3.5232119561806385e+00  1.0193217737744955e+00  1.0286854315816214e+00  1.1297428390031679e+00  1.3194466768868209e+00  9.3520628235834213e-01  3.2245890009890497e+00  1.0621435922299889e+00  2.2622084606506019e+00  9.1187804888642110e-01  9.2141985173886232e-01  9.2712775716887319e-01  1.2608969794228380e+00  9.8797985198583038e-01  9.7855480923368243e-01  1.1049870346687778e+00  9.3080958589415497e-01  9.3272289788366947e-01  9.6296348204046045e-01  9.2617187545008017e-01  9.5164560999810099e-01  9.5909761688983741e-01  1.1408436527918411e+00  1.2459238124675076e+00  1.1990515543182607e+00  9.0661824792316070e-01  1.0810864853352846e+00  9.1516770654634694e-01  9.6565095269269163e-01  8.9998168347867036e-01  1.0605751189755297e+00  1.0335515418158860e+00  1.0476645419617783e+00  1.0528598166404934e+00  9.0033632256705087e-01  9.2707174352758193e-01  1.0230677655761515e+00  1.0733242284881013e+00  1.1091316016865866e+00  8.9434117280707681e-01  9.3380286104952803e-01  1.1282423251393090e+00  1.0943659737320233e+00  9.0568209657962739e-01  1.1623366085325015e+00  9.4141726348202037e-01  1.1178022038140256e+00  1.2040169655430677e+00  1.2484878634748662e+00  9.1253451243338402e-01  9.2247803471322964e-01  1.2505339162994717e+00  1.2450695075616061e+00  1.2684390126170360e+00  1.3217841415684877e+00  9.5963815255323537e-01  1.0743219520436873e+00  9.4282937468850547e-01  1.0148562439161897e+00  9.9017001062924614e-01  1.7738969214681470e+00  1.0996372251348352e+00  1.0995771579433016e+00  1.1149587259912357e+00  1.1035614396470999e+00  1.1435610595957137e+00  1.0294270347914038e+00  9.0426961615764290e-01  9.0272525645659873e-01  9.3045992264236588e-01  1.1767475697765457e+00  9.9208467605539041e-01  1.0007657045695943e+00  1.5902750138191613e+00  1.5980061899420204e+00  1.7395339873842994e+00  1.2760907459986823e+00  1.4238329766391129e+00  1.5066144448830796e+00  1.1372348325386017e+00  9.6162481476561079e-01  1.2385533843660375e+00  1.2654039862717124e+00  1.0313063027543685e+00  9.4133139135250543e-01  8.9157540062246554e-01  9.0842555882734732e-01  1.1570509943739027e+00  1.1987472925087566e+00  9.4596345226810108e-01  9.3020814296972720e-01  1.5650580425763947e+00  1.2425652020527578e+00  9.2577974524945728e-01  1.0075341371753552e+00  9.0362438939178236e-01  1.0538003454312710e+00  1.0235006906416264e+00  1.1281164329462907e+00  1.3342964641795623e+00  1.1239452551973648e+00  1.1116740329682386e+00  2.8264886046082056e+00  8.8463625696277126e-01  1.0290178268141386e+00  1.0743257380733147e+00  9.3544893761771686e-01  8.8043216083554721e-01  1.1471252453889584e+00  9.6133752376683057e-01  8.7911364365752354e-01  8.8257256695637820e-01  1.9171790686794172e+00  2.2091183727990629e+00  3.5953920895989557e+00  1.0285359075144589e+00  1.0351082615042355e+00  1.0954529616581961e+00  3.2750232147216178e+00  1.2656200761354683e+00  1.1191035469073318e+00  1.0035067296424121e+00  1.0479830700374819e+00  1.5314822405251978e+00  9.4882548612100392e-01  1.2275505230464103e+00  1.0269233937770963e+00  6.0497835286325208e-01  1.0010330957863545e+00  1.7391417910645965e+00  1.323319954