<?xml version="1.0"?>
<VTKFile type="UnstructuredGrid"  version="0.1"  >
<UnstructuredGrid>
<Piece  NumberOfPoints="4299" NumberOfCells="8340">
<Points>
<DataArray  type="Float64"  NumberOfComponents="3"  format="ascii">0 1 0  0 0 0  1 0 0  1 1 0  0.5 0 0  1 0.5 0  0.5 1 0  0 0.5 0  0.5 0.5 0  0 0.25 0  0.25 0 0  0.25 1 0  0 0.75 0  1 0.25 0  0.75 0 0  1 0.75 0  0.75 1 0  0.7083333333333333 0.2916666666666667 0  0.2916666666666666 0.7083333333333334 0  0.375 0.25 0  0.75 0.625 0  0.2569444444444444 0.4652777777777778 0  0.5366379310344828 0.7535919540229885 0  0.1875 0.1875 0  0.8125 0.8125 0  0.869047619047619 0.375 0  0.1450441919191919 0.6052714646464646 0  0.375 0.8690476190476191 0  0.5526960784313725 0.1825980392156862 0  0.8385416666666666 0.1614583333333334 0  0.1614583333333333 0.8385416666666667 0  0.6736111111111112 0.4652777777777778 0  0.1367521367521368 0.3477564102564102 0  0.6570970491253563 0.8648656830417855 0  0.5102479397556124 0.3386260301221938 0  0.3654513888888889 0.5737847222222222 0  0.6929750044954185 0.1362784921584263 0  0.388576102743835 0.411911725237599 0  0.6091269841269842 0.5942460317460317 0  0.875 0.6875 0  0.427278890279516 0.119889445139758 0  0.8544456845238095 0.5213913690476191 0  0.125 0 0  0 0.125 0  1 0.875 0  0.875 1 0  0.1280008648150532 0.4769292340226777 0  0.2695382451711197 0.3321750950221553 0  0.7031567235715964 0.7447810921428012 0  0.625 0 0  0.375 0 0  0.125 1 0  0.875 0 0  0 0.375 0  0 0.625 0  1 0.375 0  0.375 1 0  1 0.125 0  0 0.875 0  0.625 1 0  1 0.625 0  0.2979288363930608 0.1201429454643536 0  0.410919540229885 0.7484605911330049 0  0.5325041980395562 0.878905151526474 0  0.4831670727569156 0.6331060043826487 0  0.1735997378973042 0.7204747378973043 0  0.2534919507575758 0.5772372159090909 0  0.2633928571428572 0.8876488095238095 0  0.8199404761904761 0.2730654761904762 0  0.75830270586982 0.3919383189517417 0  0.5750282248382511 0.4237522353023667 0  0.6008360210023379 0.2794828358598495 0  0.08163442644334186 0.6821295860397322 0  0.08333333333333333 0.1875 0  0.2028380815996574 0.08844602719988583 0  0.2766521142611967 0.2325436572164097 0  0.90625 0.78125 0  0.890625 0.890625 0  0.7545696325008384 0.8973565441669461 0  0.5625 0.08086590340834317 0  0.09077380952380953 0.09077380952380952 0  0.4610923478694773 0.209034015149656 0  0.7542527598351648 0.5248380520595106 0  0.6459235536037465 0.3619913988405765 0  0.7560381768882634 0.20506142233852 0  0.07073252688172042 0.8125 0  0.0924753097241701 0.9078102849914793 0  0.9292674731182795 0.1875 0  0.9075246902758297 0.09218971500852073 0  0.8125 0.07073252688172045 0  0.2400955776842301 0.7869705776842302 0  0.9121050213379069 0.2781978201831695 0  0.7916878157143976 0.7239689078571988 0  0.9345238095238094 0.4375 0  0.4375 0.9345238095238095 0  0.3725616989755203 0.6651895248862173 0  0.06536271996350887 0.5625 0  0.9348362560379583 0.5625 0  0.456646798987055 0.8277247094351965 0  0.1875 0.9355758238725954 0  0.6169761231634859 0.6939779188977889 0  0.6226854751147515 0.7827911461419014 0  0.3305695598137626 0.7901697871282585 0  0.5865305325818898 0.5101085479043448 0  0.6622701297028378 0.2177663989757395 0  0.1354166666666667 0.2591702279202279 0  0 0.3125 0  0.2094429575680048 0.3936361846162499 0  0.836666296419157 0.607917407161686 0  0.6875 1 0  0.214261555450504 0.6492551722020035 0  0 0.4375 0  0.07731537126068377 0.40625 0  0.3427725432967068 0.4879566233699599 0  0.3550792513951871 0.3331953632609953 0  0.4462473953896857 0.2887834789342508 0  0.4747801464819794 0.417386052030127 0  0.8229836475148948 0.4443292349237342 0  0.7322605135514757 0.8199240278289671 0  0.6756431877205955 0.5468989748126787 0  0.1968419507215863 0.5194573482612496 0  0.3285590277777778 0.9345238095238095 0  0.8125 1 0  0.4198917601920009 0.5134893045331258 0  0.5232405503206691 0.2595791787880157 0  1 0.9375 0  0.1987510870015086 0.3025185951894431 0  0.5625 1 0  0.6005390654136388 0.9228110509230952 0  0.6411254848194414 0.07704872765442942 0  0.3357233162523242 0.1855113224530532 0  0.6730653396610877 0.6393887462324165 0  0.310966987234063 0.6240019765311626 0  0.7368737836204349 0.07457755202327881 0  0.6192316414418171 0.1485238406378594 0  0.5432429670607106 0.678552703844006 0  0.4754371679695679 0.7103946803120881 0  0.07501324890749672 0.3043839897335739 0  0.5358146975860403 0.5688321463205916 0  0.3115271739500156 0.3982137365971444 0  0.3625191397122174 0.0767854603650549 0  0.5024029442563831 0.1264128223758444 0  0.4375 0 0  0.4699946908887376 0.06379961173775725 0  0.9375 0.71875 0  0.9272105898044465 0.635671179608893 0  0.9375 1 0  0.6690971819568612 0.9331530898202766 0  0.1073454944778885 0.7499206387638554 0  0.8699082999280406 0.2232403652524313 0  0.5773118091863964 0.3548027349159383 0  0.1354166666666667 0.1428571428571428 0  0.3125 0 0  0.8241684193077341 0.9257452995055244 0  0.4352314948354036 0.3586940847489378 0  0.4351301473778832 0.5819726043539077 0  0.8073232928518163 0.3419398170341962 0  0.7775949246947366 0.1298519409204575 0  0.6875 0 0  0.7413513991851041 0.457933324954483 0  0.939453125 0.841796875 0  0.5630355154606987 0.8171875156478349 0  0.9345238095238095 0.3461466592368577 0  0.9375 0 0  1 0.0625 0  0.0625 1 0  0 0.9375 0  0.06552178593177167 0.4969053669623468 0  0.1424866619031703 0.4130277709291224 0  0.1275287182444726 0.5422946908002588 0  0.2637686595586339 0.06413888464529549 0  0.2524263535491086 0.1697437503243817 0  0.7367218397988525 0.6888573970660841 0  0.0625 0 0  0 0.0625 0  0.8463594539285995 0.7578283617857982 0  0.3128751192101563 0.2851997374369947 0  0.4015281788351144 0.1806421385113692 0  0.1910251795116588 0.4553332197174453 0  0.287797471442006 0.5222621440543902 0  0.3962628745986055 0.8097380085535307 0  0.3505895299554843 0.7304878890838692 0  0.5019151500495276 0.9356042615328103 0  0.9374389419410134 0.4999931039076005 0  0.3125 1 0  0.1875 1 0  1 0.5625 0  0.4375 1 0  1 0.3125 0  1 0.4375 0  0.8125 0 0  1 0.1875 0  0.5625 0 0  0.1875 0 0  0 0.1875 0  0 0.5625 0  0 0.6875 0  0 0.8125 0  1 0.6875 0  1 0.8125 0  0.8021696218581627 0.6612893947866073 0  0.06154922295426143 0.6239401126946708 0  0.9359375 0.9359375 0  0.4666158024849896 0.7691515918155014 0  0.2318201265217025 0.7064974250277525 0  0.1565954253579966 0.6635489312486841 0  0.1598132503680848 0.7787147500325552 0  0.3146529991605639 0.8510876378205265 0  0.1461873209418733 0.05982804528877814 0  0.06109554988524315 0.2446551776247686 0  0.8054950308560754 0.5564226538848541 0  0.470541749491976 0.8853316336952531 0  0.6948472567465137 0.4042308563372457 0  0.8802828472348889 0.4658893256343853 0  0.6788075634946739 0.7974194205806069 0  0.2155048659603867 0.2428201584940968 0  0.8131223143423806 0.2132171049028394 0  0.4330798005432235 0.6671274900735726 0  0.6015279126162613 0.2187368078743274 0  0.8061636571464289 0.8703766630361714 0  0.7008230445061776 0.3478568388444072 0  0.8638466246958771 0.3147095987735538 0  0.204801534004265 0.8789209409594009 0  0.2449006736431132 0.9424182882803838 0  0.7611268409371427 0.2643056884799992 0  0.7552800864046191 0.7678006649959446 0  0.5983639638906616 0.864113435029236 0  0.1956559506814437 0.577281203577426 0  0.3527670268164207 0.1320469097565204 0  0.7530364577483248 0.3262386077083089 0  0.4535919187979363 0.4690107087451527 0  0.8824869791666666 0.8336588541666666 0  0.8814453125 0.9451171875 0  0.5582987942628019 0.622421666543858 0  0.6817532446064828 0.6939001801354731 0  0.3830295138888889 0.9450968952922078 0  0.4140603937012541 0.05211333372716105 0  0.5535864501303013 0.3060591985391672 0  0.6560130086346878 0.2729726562211558 0  0.890203140221684 0.5948314305427268 0  0.7043857725999024 0.593980890020804 0  0.5105843922695152 0.8016828014338627 0  0.05365910753708378 0.7315110031682004 0  0.616904573672261 0.4621186633436136 0  0.5338511646455415 0.387875898899613 0  0.5231769258947843 0.4477682463140762 0  0.650302973237622 0.7370722302085519 0  0.3927483139621257 0.4662414504529014 0  0.8034595960585199 0.4972538342758211 0  0.7738337841682438 0.9496376207663251 0  0.7193737507158268 0.954685447650112 0  0.482525916480686 0.5528257169991676 0  0.2533501157346781 0.2809495420003238 0  0.3118487924482243 0.5702930126570319 0  0.6257598847669529 0.4104163315430518 0  0.1354166666666667 0.1955605158730158 0  0.04166666666666666 0.15625 0  0.3956448985530264 0.6174149462065157 0  0.8102897701818546 0.3938784238208349 0  0.2641154190013625 0.8344469561943118 0  0.642852220770013 0.5068794586563659 0  0.05271458179508221 0.355846947336007 0  0.7021551360070266 0.8921457280225779 0  0.5692125776683765 0.1328512638850284 0  0.5206162811937602 0.04865158770992991 0  0.6001838442201555 0.04540556991297563 0  0.2597716608242787 0.4118346398477178 0  0.4040584599473195 0.3179589136784675 0  0.1480337679295207 0.8941560631483065 0  0.1344356707112281 0.9466251177415842 0  0.7114696411829317 0.4983917389078826 0  0.7585704698442475 0.5751926345944629 0  0.2189131956390871 0.04022068508159698 0  0.2094512238151452 0.1401845482039332 0  0.6223414373308711 0.643380839165121 0  0.5732602596637543 0.7190051747306219 0  0.268358222364537 0.6586246524467934 0  0.3265879848129173 0.2369791782191225 0  0.1267095595787346 0.7034787238999181 0  0.1115202922226038 0.6421997933884982 0  0.3128688392940203 0.07260997451790079 0  0.550724900485678 0.9253360991633187 0  0.7142608810459105 0.2384904702214873 0  0.7045869185243887 0.1871826897887429 0  0.890625 0.734375 0  0.953125 0.765625 0  0.2111812642821677 0.8286209446459138 0  0.9590293078204457 0.09375 0  0.953431269039847 0.1435719386408004 0  0.04097069217955424 0.90625 0  0.04656873096015299 0.8564280613591996 0  0.1078743037981226 0.8541621766048062 0  0.8921256962018773 0.1458378233951939 0  0.8521576979194619 0.1084496634207678 0  0.8655663982740958 0.05464346096571447 0  0.04005659640905543 0.09375 0  0.1001448316533417 0.04246776244228261 0  0.934578184766147 0.05001804220989697
[...]
<PointData  Scalars="f_4733044"> 
<DataArray  type="Float64"  Name="f_4733044"  format="ascii">1.1211972163665525e+00  9.9994007637617144e-01  1.0001140108990929e+00  9.0728876178700857e-01  1.0155637331197280e+00  1.0028333638691445e+00  2.6381212981205859e+00  9.9879869244565633e-01  1.0237615227123549e+00  9.9992089357794967e-01  1.0027464338524048e+00  4.1405065123884128e+00  9.9730542716869364e-01  1.0000994922301727e+00  1.0031063036957801e+00  1.0114650841555699e+00  2.2654144402400975e+00  1.1213195155522446e+00  9.3351400027642761e-01  9.5396006157903035e-01  1.2283067385247544e+00  8.8685032349179316e-01  1.0047682327662704e+00  9.3451103557323623e-01  1.0527417645397072e+00  1.1383074441108902e+00  8.9494084798199458e-01  1.3351482371039938e+00  1.0344279828397354e+00  1.0640071787202279e+00  1.2131822228375118e+00  1.1718515456587544e+00  9.0650628818781542e-01  1.2195234440855918e+00  1.0285917265100406e+00  9.2093337842324663e-01  1.0623537654870598e+00  9.4721616080335114e-01  1.1107585747861861e+00  1.2632413545180998e+00  9.8699831123583992e-01  1.2254950586805109e+00  9.9999572076182930e-01  9.9995283364761600e-01  1.0110821750032308e+00  1.2064339607151322e+00  8.9160513643592076e-01  9.0712729064931519e-01  1.1178584050573124e+00  1.0109322389899122e+00  1.0107255311961207e+00  3.5031032896824863e+00  1.0000341885363513e+00  9.9964523527250393e-01  9.9883039553431596e-01  1.0001588073970762e+00  3.3773733581579615e+00  1.0000020610969955e+00  1.0155113318708608e+00  2.0590455673029209e+00  1.0047725830723655e+00  9.5659144159678866e-01  9.6638222261163431e-01  1.2894864028735171e+00  9.8345596816110881e-01  9.5559781319557302e-01  8.8553102912751891e-01  1.5306969655104337e+00  1.1130839598946298e+00  1.1765031189971129e+00  1.0869908044970336e+00  1.0747215475843728e+00  9.4739916307846050e-01  9.5914862185524929e-01  9.6281080264317320e-01  9.2722358957909190e-01  1.1770807445078222e+00  6.6357742694909927e-01  1.4063917112612112e+00  1.0241211304120295e+00  9.7958607276803289e-01  9.9502045379414295e-01  1.2354153242204424e+00  1.1222361968454173e+00  1.0918011586808301e+00  1.0750857909339104e+00  1.4713900735023584e+00  1.0392089144699515e+00  1.0225295335801377e+00  1.0342911637786372e+00  1.0531417265758647e+00  1.0727816741049416e+00  1.1525437198073745e+00  1.0996785840540220e+00  1.9819739025357708e+00  9.2479434061750954e-01  9.2680888085987623e-01  1.1433195320708216e+00  1.1008121519629184e+00  2.1401920225749542e+00  1.0728679521132629e+00  1.0700794475819757e+00  1.0374500308305385e+00  1.1028631841733920e+00  1.0824769876108513e+00  9.2548785614402440e-01  9.9967633304872960e-01  8.8909352965592792e-01  1.2694652212457302e+00  2.0670986626301748e+00  9.0095415808524371e-01  9.9910685301177526e-01  9.2453860703518165e-01  9.1577216089846225e-01  9.3631146906284912e-01  9.8672923018235292e-01  1.0060423700840824e+00  1.1984216058515869e+00  1.1801914927289199e+00  1.1847338384292743e+00  8.7834590240288157e-01  2.2164434173530214e+00  2.1546181339793793e+00  9.5915164333970593e-01  1.0292538997132421e+00  9.4955574380971774e-01  9.0609748376121579e-01  2.3269588540183683e+00  1.5483765863294574e+00  1.0365810939661344e+00  9.4969865520579033e-01  1.1543027413033988e+00  9.0275405172539580e-01  1.0413023133275519e+00  1.0511912660416558e+00  1.0159957346359572e+00  9.6769448138242442e-01  9.4093214753320553e-01  1.0457880283280907e+00  9.1048736204387426e-01  9.7950978519664211e-01  1.0109650063256193e+00  1.0141219823956438e+00  1.0042054188865068e+00  1.2024775676505557e+00  1.1888473127234578e+00  5.9476564828118517e-01  1.5502236124669457e+00  9.9619571050479860e-01  1.0766837203520025e+00  1.0770202656123238e+00  9.5516753679838484e-01  1.0064136568982658e+00  1.5686164282565924e+00  9.7892720048190562e-01  9.6033429434099071e-01  1.1481829688402936e+00  1.0616630631365884e+00  1.0067124300544747e+00  1.2049156920432831e+00  1.1306856302171797e+00  1.0739615887638250e+00  1.0734557500274999e+00  9.9996779480497466e-01  9.9992447702032949e-01  2.1496420685755457e+00  1.0558545047924930e+00  9.2582391761725769e-01  8.9382626323604841e-01  8.9116022502208592e-01  9.7171481140752847e-01  9.3864060350916712e-01  1.1697024131318596e+00  1.0001984925681799e+00  1.0000875620081222e+00  1.1100785440546348e+00  9.2640635760599943e-01  9.7168116531520277e-01  8.8139301421739513e-01  8.9190902769009539e-01  1.0661452543150780e+00  9.4967749300785564e-01  1.8241298810044728e+00  1.1160790717453057e+00  3.7468679187815117e+00  4.1400879370775741e+00  1.0018183042944777e+00  2.9517529058195815e+00  1.0001148131933915e+00  1.0002289173167263e+00  1.0008821578665623e+00  1.0001406648933320e+00  1.0143794066879164e+00  1.0006566536809542e+00  9.9993766712434318e-01  9.9943210701040941e-01  9.9837168099741103e-01  9.9850947300759541e-01  1.0127776730940352e+00  1.0276910642489003e+00  1.2404882914107287e+00  9.3822907114797094e-01  5.5373113535169338e-01  9.9078040401181355e-01  9.3563283109177042e-01  9.1460140571290138e-01  1.0424755319855794e+00  1.2574186867151658e+00  9.7814992257617162e-01  9.5851262222308631e-01  1.2574910138441568e+00  1.3847151985547117e+00  1.1631780207932902e+00  1.1739092357455327e+00  1.1215680277208060e+00  9.1928998466570644e-01  1.0895480915113775e+00  9.4770556189072275e-01  1.0611705749947775e+00  1.2654826782481154e+00  1.1422486563270529e+00  1.1147009859779657e+00  1.4509191391202287e+00  2.4045390874901158e+00  1.1162068882422558e+00  1.1166821091042589e+00  1.2072832810786411e+00  8.8224808801071375e-01  9.6424068194099100e-01  1.1437567107314712e+00  9.8798046319100219e-01  8.4927184399833644e-01  1.0946217151998330e+00  1.0503748959153845e+00  1.1280220408893959e+00  2.3077673525528875e+00  9.9562994735988009e-01  1.0530319134216137e+00  1.0978889657686715e+00  1.2300408279147899e+00  1.2029400884001151e+00  1.0378572221091835e+00  9.8419591491015779e-01  1.1272268494932269e+00  1.0502081011642515e+00  1.0454409952270178e+00  1.0851865857487639e+00  9.4557058722780274e-01  1.2317769216103553e+00  1.7100098859118706e+00  1.7678450396028029e+00  1.0015807654858342e+00  9.1363278856977970e-01  8.9930214793389918e-01  1.1233979068845310e+00  9.4105960487780349e-01  9.8144497227399752e-01  9.3272342360647320e-01  1.1743512460543000e+00  1.1977279255633306e+00  1.1548777190454880e+00  9.4862933266835070e-01  1.3478353168667352e+00  1.0333247372402030e+00  1.0140932133959129e+00  1.0233967050230151e+00  8.9307731075000452e-01  9.6218514784427911e-01  1.5097660799333203e+00  2.1381119565740505e+00  1.2057436177473231e+00  1.2455713567422522e+00  9.8082068929626431e-01  9.4622268112190244e-01  1.1031959574955719e+00  1.0279063077736390e+00  9.0569644393815929e-01  9.3833204540603965e-01  9.4736668593751583e-01  9.1744559085329647e-01  9.7298701435297519e-01  1.6529736253730871e+00  1.1015402160128489e+00  1.0813449989266528e+00  1.2357968103758805e+00  1.1792658376619687e+00  1.1836343826332292e+00  1.0092255533205809e+00  1.0194243356194541e+00  1.2274406156437898e+00  1.1138424037507892e+00  1.2268174130396525e+00  1.0428174051958108e+00  1.0415937768753509e+00  1.0201154296699302e+00  9.9124322207628734e-01  9.8988198038870467e-01  1.0065362349366374e+00  2.0125450440575978e+00  1.4427536082437717e+00  9.9732815374777029e-01  1.0449164554283552e+00  1.0125649930914569e+00  9.8994024150418147e-01  9.7393225377510273e-01  1.0720894508435868e+00  1.1595667305979374e+00  9.0321530668600325e-01  9.6873621218902495e-01  1.0391526241044486e+00  1.0252771699310197e+00  1.0124479152676877e+00  1.0462104270432284e+00  9.5066774883442917e-01  1.0017516665353239e+00  9.9342680411406747e-01  1.0938876096882508e+00  1.2649013148986132e+00  1.0678002476323205e+00  1.1294768040460983e+00  9.5540410088059879e-01  1.0716744376423697e+00  8.9714088157758765e-01  9.3936516055994801e-01  9.2330876296062958e-01  1.0948009665897029e+00  9.9139880940928971e-01  1.1419080321751383e+00  1.1603954254230160e+00  9.1396680591020807e-01  1.0632401985000064e+00  9.7149056165115066e-01  1.0365681563342857e+00  8.8165923231102439e-01  1.2207556056499362e+00  1.0840316869262294e+00  1.0351859801458685e+00  1.0762261177689951e+00  9.9323207396946400e-01  1.1401702187578067e+00  2.3853361277669478e+00  9.0400840814457306e-01  9.5666291260745895e-01  1.0817705263717774e+00  1.1832983209864296e+00  9.2262204960360517e-01  1.0229054494243028e+00  1.1167364609895127e+00  1.2547563678698099e+00  1.0226213945707838e+00  1.0959421002921190e+00  1.1234226672270728e+00  1.0822109823460577e+00  2.9163908296849810e+00  9.1174599325145500e-01  9.2667211877607847e-01  9.4291150915947741e-01  9.2002764045391217e-01  9.6840604746851289e-01  9.5943115186393924e-01  1.0693781586981259e+00  1.0579897615611862e+00  2.1792194380081562e+00  1.5136724825116512e+00  7.4092535152411776e-01  1.2517107541349148e+00  1.2601747216495363e+00  1.0427204938140802e+00  1.7316571644713603e+00  1.1902195436082028e+00  1.0589699328347479e+00  9.5906266029102494e-01  1.0105683250077191e+00  9.6222807357213846e-01  1.0571679503779032e+00  9.6877288861329813e-01  1.0085348173945652e+00  1.9144840235322278e+00  8.9649528703409187e-01  9.1982296197995683e-01  9.4171745095483095e-01  9.5079401724013279e-01  1.1323132065196184e+00  1.2207452562995069e+00  9.5074399222855388e-01  9.5488071471215541e-01  1.1072164640202513e+00  9.1453408227901145e-01  9.3864347051570540e-01  1.0154481932467452e+00  1.0046025402091754e+00  1.0188844935253052e+00  1.5306660748951562e+00  9.1927293141490274e-01  9.2947156664139530e-01  1.0014911897429961e+00  1.0878686484707694e+00  1.2255269229170576e+00  9.7487967350667126e-01  9.5823885198551884e-01  1.1963339633705532e+00  1.1687173352782432e+00  1.0186123850496318e+00  1.2109729480239266e+00  1.6784292412556303e+00  8.9202734902340508e-01  9.0004691869401809e-01  9.9981515499194729e-01  9.2166433370321010e-01  8.9170957722249689e-01  9.2797292834929179e-01  1.1962608278051383e+00  9.1551795533146862e-01  9.3224813222129410e-01  8.8470149102936735e-01  4.1718768554876364e+00  9.3767609076612923e-01  9.8975140767937142e-01  9.4083300242335299e-01  1.0096151877478183e+00  9.9956498332303045e-01  9.6607842845342884e-01  1.1398884150597033e+00  1.3298308640217171e+00  8.8116165720538986e-01  8.8014558460971359e-01  9.7900031288399758e-01  1.0512081789034087e+00  1.1697191755616467e+00  1.1281690580916675e+00  1.1301035036990572e+00  1.0043617778611142e+00  1.0610791300035880e+00  9.8686432339044095e-01  1.9178420422796871e+00  2.9043878862953552e+00  1.0155478327659513e+00  1.0791786994528341e+00  1.0185694930607192e+00  9.8572864478462452e-01  1.0639235141518852e+00  1.0503758902715870e+00  9.6986775572497752e-01  9.7111197416472594e-01  1.0567845774851441e+00  6.3277188200462409e-01  9.0567663270619680e-01  1.1145506715316200e+00  1.0521297204161852e+00  9.7731286226110681e-01  9.9996604491688057e-01  9.6813396598872525e-01  9.4132459890942899e-01  1.3594013451609741e+00  1.0500025358289191e+00  1.2144977146454226e+00  1.1071383199984599e+00  3.1243044517677809e+00  9.1117667753884268e-01  9.7313884770644421e-01  9.6306766045693193e-01  1.0795181944175167e+00  9.0068670595516176e-01  8.8158126207143528e-01  1.7119793577866957e+00  8.9225714378615506e-01  1.0003064059685298e+00  1.0178414197346750e+00  1.0624035848332796e+00  1.0425563463617968e+00  9.5173505281994897e-01  9.5277566100645583e-01  9.9994703588809564e-01  1.0221626705966871e+00  9.9059464090513583e-01  9.8509786520235776e-01  1.0076585325795764e+00  9.7594261963027162e-01  3.9115124800215986e+00  1.3366755703792048e+00  1.4869027380465647e+00  1.7233818824935137e+00  8.8036979819730699e-01  2.0085739357663210e+00  1.0446436094151466e+00  9.9409653242268003e-01  8.9450004871758537e-01  1.3125733874960979e+00  8.9327176256417606e-01  9.1330527360997560e-01  9.4602515557515310e-01  1.2682778885251385e+00  1.1035952960729063e+00  1.0001270669551832e+00  1.1655561428571144e+00  1.2250333384088261e+00  1.2995138367996160e+00  1.0097945499800332e+00  9.6757725362847946e-01  1.1061445665516985e+00  1.1460495248340525e+00  1.0148855572719853e+00  1.0001582926509514e+00  1.0000842339443301e+00  1.0228413904904681e+00  2.5507331628710261e+00  9.9215559156840794e-01  9.6751186539307399e-01  9.7748142679454075e-01  1.1629255684654047e+00  1.8809749088852343e+00  9.7543335487684435e-01  1.1295209027440820e+00  8.8583639525504532e-01  1.2146663851150947e+00  9.9821207322375138e-01  1.0787746205219142e+00  3.0834159634714364e+00  3.1262513324329535e+00  1.0047552215355466e+00  9.6604910920765907e-01  1.0525723722065270e+00  1.0779760687114950e+00  1.4836177360869822e+00  9.7696984973336409e-01  1.1832683887470903e+00  1.1817517491487601e+00  1.2141162872041389e+00  9.1424049645621186e-01  1.0393653348145719e+00  1.2080413774076901e+00  1.0950203796571365e+00  1.0104842635436626e+00  9.8826688778342275e-01  9.4557052847253509e-01  1.0000879558500004e+00  1.1524149468055145e+00  1.1279746741310086e+00  1.1652972872203160e+00  9.1900936793995114e-01  9.6754383038906677e-01  1.1111008685376897e+00  1.2442215067616351e+00  1.1161147744213238e+00  9.9979357116006951e-01  1.2419837565453258e+00  8.9773015080157559e-01  8.8652555060123317e-01  1.1411188149103200e+00  1.7672805362704485e+00  1.3557609994626094e+00  9.3849106400634064e-01  1.0147347951147332e+00  1.1820968509954777e+00  1.1209601742397659e+00  7.8481862960045912e-01  1.0523136835284088e+00  1.0771455573350015e+00  1.0269563633759122e+00  1.2473233740075427e+00  1.0284868966715519e+00  1.0688233791812638e+00  9.6206504788459191e-01  1.1960250937622576e+00  1.8047866676751443e+00  9.5569845208756865e-01  9.6657866627339017e-01  1.0011259614403112e+00  1.1898715828161945e+00  9.9969376304211999e-01  1.0756758124796433e+00  1.0298834754340027e+00  1.5073414289441938e+00  1.0975465125654689e+00  9.9997617573741748e-01  1.1573345009638620e+00  9.0629337428167112e-01  1.0827743121029882e+00  9.3415752532804408e-01  1.4823788310719779e+00  1.1405832137374905e+00  9.2404379703097961e-01  8.8682730465124049e-01  9.8901212335397914e-01  1.1641358877645660e+00  1.0398572225837759e+00  1.1004149025761800e+00  1.0937928078382380e+00  1.0232369221640278e+00  1.0282192453311445e+00  9.0727453845594863e-01  8.8495331385175158e-01  1.0969586910932008e+00  8.8674448122664629e-01  1.0337372533994920e+00  9.8189400417957029e-01  1.1994481269591439e+00  1.1594715026671207e+00  9.0701925988599330e-01  9.6820408080869491e-01  9.8451764965362010e-01  9.6169948065125987e-01  1.0520431478924575e+00  1.0009680438927366e+00  1.0147011268539519e+00  1.0600919566051346e+00  8.9094614372181480e-01  1.1500862764669424e+00  9.8163237859934560e-01  1.1365793166219644e+00  1.1241717883001119e+00  1.0126671477827422e+00  1.0578616181056724e+00  1.1515658217069522e+00  1.0518292130973965e+00  9.0337524069944430e-01  1.3333930192777310e+00  1.1492264563465679e+00  1.0734546094285025e+00  1.8862406919937511e+00  1.5179532986331570e+00  1.0000451183827093e+00  1.0000678841260671e+00  1.0114972657511392e+00  1.0153172690919545e+00  5.9788965400610261e-01  9.8972933780371342e-01  9.9988015656179252e-01  1.0021035632557058e+00  1.0627885511012640e+00  9.1546506084450285e-01  9.2206254078407235e-01  9.7958029769328392e-01  1.0238655825191745e+00  9.3311911085237886e-01  1.1411377566699943e+00  2.3019991793442536e+00  9.8918537502947146e-01  9.7731913503963463e-01  9.8559858145035784e-01  1.1811780140078023e+00  1.0091263081833142e+00  9.3168699805556177e-01  1.0244454395862030e+00  1.0758617191634405e+00  1.2227464103877670e+00  1.1243586800467742e+00  1.2868756197935998e+00  9.5829361014069625e-01  9.4390721534550082e-01  1.1559320228230412e+00  1.0308049601017342e+00  1.1290768729435321e+00  9.5821442520517630e-01  1.1292680650169027e+00  1.0610431895409278e+00  1.1440699998434620e+00  1.0336787537091805e+00  9.5508628721698285e-01  2.0541742502077689e+00  1.0848645059072595e+00  1.0151015074020397e+00  7.0790346163901063e-01  2.1676462575972608e+00  1.7584682747147071e+00  1.0987571954286086e+00  1.5403773562179852e+00  2.4763321535095515e+00  9.9861645221748307e-01  3.9691948764890448e+00  1.0059088153076627e+00  1.0047664220096766e+00  1.0088178817959623e+00  1.0022146813231692e+00  1.0014657764045773e+00  1.0039661218032128e+00  9.9964899731490497e-01  9.9953832753959082e-01  9.9949699248873147e-01  9.9994932657329294e-01  1.0084891099212665e+00  9.9673096449495291e-01  1.0018325042273841e+00  2.8249117129833268e+00  9.9989197800132890e-01  1.0273781397558615e+00  1.0000158824539003e+00  1.0014381753474162e+00  1.0128386981051112e+00  1.0000532543655356e+00  9.9997685172185391e-01  2.1663039449105557e+00  2.7636850867244238e+00  9.8626830439941304e-01  9.0960955155411582e-01  7.2124293415841445e-01  9.9924481575051682e-01  9.9997487529393148e-01  3.5754804734243231e+00  1.0112638372070983e+00  1.0250944794851640e+00  1.1299505098497846e+00  1.3127027624090271e+00  9.3474877380325228e-01  3.0465144032080431e+00  1.0623638818904468e+00  2.2775849093149012e+00  9.1173683551409834e-01  9.2133382221052229e-01  9.2691803164095654e-01  1.2571074896570291e+00  9.8807902820413263e-01  9.7873797229639248e-01  1.1092782437919435e+00  9.5328168453373308e-01  9.3164845502595917e-01  9.3408421232342598e-01  9.6379158273935406e-01  9.2698161806184154e-01  9.5164846671259251e-01  9.5902958976728359e-01  1.1400751449880864e+00  1.2438498520803896e+00  1.1976488099286278e+00  9.0656517108179269e-01  1.0796465175439518e+00  9.1631319832487634e-01  9.6575814021823736e-01  8.9998372525999437e-01  9.4598758306106334e-01  1.0622318702688593e+00  1.0365681061585885e+00  1.0479833149357705e+00  1.0524682658782831e+00  9.0014112142885527e-01  9.2693042775517265e-01  1.0230995820136568e+00  1.0734227146950055e+00  1.1087935870458328e+00  8.9427087922560045e-01  9.3216936968923292e-01  1.1280261828300997e+00  1.0943668777401208e+00  9.0494281306675173e-01  1.1626407212516638e+00  9.4138921877362247e-01  9.5081563172424699e-01  1.1188354204428546e+00  1.2045685261207335e+00  1.2422717706061812e+00  9.1222181276516645e-01  9.2198102179101304e-01  1.2495764607434343e+00  1.2432749893751471e+00  1.2658368419991430e+00  1.3280027874777902e+00  9.6016869239605507e-01  1.0736525191773998e+00  9.4402719003964874e-01  1.0171995800307165e+00  9.9269921143073903e-01  1.7305314025555065e+00  1.1002596143398089e+00  1.1029365619052844e+00  1.1150947833202025e+00  1.1038916119500186e+00  1.1479586419906656e+00  1.0289214683876333e+00  9.0532109316354792e-01  9.0321061561100335e-01  9.3171744219190133e-01  1.1738612530103865e+00  9.9232600311793717e-01  9.9856144564298777e-01  1.5721379527153101e+00  1.5738534515530676e+00  1.7138988688266825e+00  1.2802147112069191e+00  1.4242563352840445e+00  1.4821443014310807e+00  1.1392689144733816e+00  9.6166799567209937e-01  1.2342420215117611e+00  1.2628834328268805e+00  1.0313429444421465e+00  9.4035044360959397e-01  8.9106243065350255e-01  9.0847531218995459e-01  1.1584495780118966e+00  1.1923009733122585e+00  9.3006173888012189e-01  1.5526652165052808e+00  1.2417668112761575e+00  9.2551312397509555e-01  1.0076586394134956e+00  9.0354717313185817e-01  1.0538044212053399e+00  1.0234740185897730e+00  1.0992484939982117e+00  1.3371150066953184e+00  1.1262425958172364e+00  1.1116940308749117e+00  2.6438313612446693e+00  8.8505999440743666e-01  1.0310714368449065e+00  1.0752731762216070e+00  9.3538730615375620e-01  8.8057838389075516e-01  1.1552914946576647e+00  9.6137549069088479e-01  8.7921611405446543e-01  8.8229592348836172e-01  1.8902063167040617e+00  2.1604884797443127e+00  3.3984647614877210e+00  1.0284491430879141e+00  1.0351401417139514e+00  1.0956354330266078e+00  3.1067123682746214e+00  1.2605824943047361e+00  1.1191787299095790e+00  1.0036168320236218e+00  9.4510524679663421e-01  1.0479822198385178e+00  1.6158140996867560e+00  1.2277944348916123e+00  1.0268773523091563e+00  5.7533921223090190e-01  1.0010871225621092e+00  1.7033323