<?xml version="1.0"?>
<VTKFile type="UnstructuredGrid"  version="0.1"  >
<UnstructuredGrid>
<Piece  NumberOfPoints="3711" NumberOfCells="7164">
<Points>
<DataArray  type="Float64"  NumberOfComponents="3"  format="ascii">0 1 0  0 0 0  1 0 0  1 1 0  0.5 0 0  1 0.5 0  0.5 1 0  0 0.5 0  0.5 0.5 0  0 0.25 0  0.25 0 0  0.25 1 0  0 0.75 0  1 0.25 0  0.75 0 0  1 0.75 0  0.75 1 0  0.7083333333333333 0.2916666666666667 0  0.2916666666666666 0.7083333333333334 0  0.375 0.25 0  0.75 0.625 0  0.2569444444444444 0.4652777777777778 0  0.5366379310344828 0.7535919540229885 0  0.1875 0.1875 0  0.8125 0.8125 0  0.869047619047619 0.375 0  0.1450441919191919 0.6052714646464646 0  0.375 0.8690476190476191 0  0.5526960784313725 0.1825980392156862 0  0.8385416666666666 0.1614583333333334 0  0.1614583333333333 0.8385416666666667 0  0.6736111111111112 0.4652777777777778 0  0.1367521367521368 0.3477564102564102 0  0.6570970491253563 0.8648656830417855 0  0.5102479397556124 0.3386260301221938 0  0.3654513888888889 0.5737847222222222 0  0.6929750044954185 0.1362784921584263 0  0.388576102743835 0.411911725237599 0  0.6091269841269842 0.5942460317460317 0  0.875 0.6875 0  0.427278890279516 0.119889445139758 0  0.8544456845238095 0.5213913690476191 0  0.125 0 0  0 0.125 0  1 0.875 0  0.875 1 0  0.1280008648150532 0.4769292340226777 0  0.2695382451711197 0.3321750950221553 0  0.7031567235715964 0.7447810921428012 0  0.625 0 0  0.375 0 0  0.125 1 0  0.875 0 0  0 0.375 0  0 0.625 0  1 0.375 0  0.375 1 0  1 0.125 0  0 0.875 0  0.625 1 0  1 0.625 0  0.2979288363930608 0.1201429454643536 0  0.410919540229885 0.7484605911330049 0  0.5325041980395562 0.878905151526474 0  0.4831670727569156 0.6331060043826487 0  0.1735997378973042 0.7204747378973043 0  0.2534919507575758 0.5772372159090909 0  0.2633928571428572 0.8876488095238095 0  0.8199404761904761 0.2730654761904762 0  0.75830270586982 0.3919383189517417 0  0.5750282248382511 0.4237522353023667 0  0.6008360210023379 0.2794828358598495 0  0.08163442644334186 0.6821295860397322 0  0.08333333333333333 0.1875 0  0.2028380815996574 0.08844602719988583 0  0.2766521142611967 0.2325436572164097 0  0.90625 0.78125 0  0.890625 0.890625 0  0.7545696325008384 0.8973565441669461 0  0.5625 0.08086590340834317 0  0.09077380952380953 0.09077380952380952 0  0.4610923478694773 0.209034015149656 0  0.7542527598351648 0.5248380520595106 0  0.6459235536037465 0.3619913988405765 0  0.7560381768882634 0.20506142233852 0  0.07073252688172042 0.8125 0  0.0924753097241701 0.9078102849914793 0  0.9292674731182795 0.1875 0  0.9075246902758297 0.09218971500852073 0  0.8125 0.07073252688172045 0  0.2400955776842301 0.7869705776842302 0  0.9121050213379069 0.2781978201831695 0  0.7916878157143976 0.7239689078571988 0  0.9345238095238094 0.4375 0  0.4375 0.9345238095238095 0  0.3725616989755203 0.6651895248862173 0  0.06536271996350887 0.5625 0  0.9348362560379583 0.5625 0  0.456646798987055 0.8277247094351965 0  0.1875 0.9355758238725954 0  0.6169761231634859 0.6939779188977889 0  0.6226854751147515 0.7827911461419014 0  0.3305695598137626 0.7901697871282585 0  0.5865305325818898 0.5101085479043448 0  0.6622701297028378 0.2177663989757395 0  0.1354166666666667 0.2591702279202279 0  0 0.3125 0  0.2094429575680048 0.3936361846162499 0  0.836666296419157 0.607917407161686 0  0.6875 1 0  0.214261555450504 0.6492551722020035 0  0 0.4375 0  0.07731537126068377 0.40625 0  0.3427725432967068 0.4879566233699599 0  0.3550792513951871 0.3331953632609953 0  0.4462473953896857 0.2887834789342508 0  0.4747801464819794 0.417386052030127 0  0.8229836475148948 0.4443292349237342 0  0.7322605135514757 0.8199240278289671 0  0.6756431877205955 0.5468989748126787 0  0.1968419507215863 0.5194573482612496 0  0.3285590277777778 0.9345238095238095 0  0.8125 1 0  0.4198917601920009 0.5134893045331258 0  0.5232405503206691 0.2595791787880157 0  1 0.9375 0  0.1987510870015086 0.3025185951894431 0  0.5625 1 0  0.6005390654136388 0.9228110509230952 0  0.6411254848194414 0.07704872765442942 0  0.3357233162523242 0.1855113224530532 0  0.6730653396610877 0.6393887462324165 0  0.310966987234063 0.6240019765311626 0  0.7368737836204349 0.07457755202327881 0  0.6192316414418171 0.1485238406378594 0  0.5432429670607106 0.678552703844006 0  0.4754371679695679 0.7103946803120881 0  0.07501324890749672 0.3043839897335739 0  0.5358146975860403 0.5688321463205916 0  0.3115271739500156 0.3982137365971444 0  0.3625191397122174 0.0767854603650549 0  0.5024029442563831 0.1264128223758444 0  0.4375 0 0  0.4699946908887376 0.06379961173775725 0  0.9375 0.71875 0  0.9272105898044465 0.635671179608893 0  0.9375 1 0  0.6690971819568612 0.9331530898202766 0  0.1073454944778885 0.7499206387638554 0  0.8699082999280406 0.2232403652524313 0  0.5773118091863964 0.3548027349159383 0  0.1354166666666667 0.1428571428571428 0  0.3125 0 0  0.8241684193077341 0.9257452995055244 0  0.4352314948354036 0.3586940847489378 0  0.4351301473778832 0.5819726043539077 0  0.8073232928518163 0.3419398170341962 0  0.7775949246947366 0.1298519409204575 0  0.6875 0 0  0.7413513991851041 0.457933324954483 0  0.939453125 0.841796875 0  0.5630355154606987 0.8171875156478349 0  0.9345238095238095 0.3461466592368577 0  0.9375 0 0  1 0.0625 0  0.0625 1 0  0 0.9375 0  0.06552178593177167 0.4969053669623468 0  0.1424866619031703 0.4130277709291224 0  0.1275287182444726 0.5422946908002588 0  0.2637686595586339 0.06413888464529549 0  0.2524263535491086 0.1697437503243817 0  0.7367218397988525 0.6888573970660841 0  0.0625 0 0  0 0.0625 0  0.8463594539285995 0.7578283617857982 0  0.3128751192101563 0.2851997374369947 0  0.4015281788351144 0.1806421385113692 0  0.1910251795116588 0.4553332197174453 0  0.287797471442006 0.5222621440543902 0  0.3962628745986055 0.8097380085535307 0  0.3505895299554843 0.7304878890838692 0  0.5019151500495276 0.9356042615328103 0  0.9374389419410134 0.4999931039076005 0  0.3125 1 0  0.1875 1 0  1 0.5625 0  0.4375 1 0  1 0.3125 0  1 0.4375 0  0.8125 0 0  1 0.1875 0  0.5625 0 0  0.1875 0 0  0 0.1875 0  0 0.5625 0  0 0.6875 0  0 0.8125 0  1 0.6875 0  1 0.8125 0  0.8021696218581627 0.6612893947866073 0  0.06154922295426143 0.6239401126946708 0  0.9359375 0.9359375 0  0.4666158024849896 0.7691515918155014 0  0.2318201265217025 0.7064974250277525 0  0.1565954253579966 0.6635489312486841 0  0.1598132503680848 0.7787147500325552 0  0.3146529991605639 0.8510876378205265 0  0.1461873209418733 0.05982804528877814 0  0.06109554988524315 0.2446551776247686 0  0.8054950308560754 0.5564226538848541 0  0.470541749491976 0.8853316336952531 0  0.6948472567465137 0.4042308563372457 0  0.8802828472348889 0.4658893256343853 0  0.6788075634946739 0.7974194205806069 0  0.2155048659603867 0.2428201584940968 0  0.8131223143423806 0.2132171049028394 0  0.4330798005432235 0.6671274900735726 0  0.6015279126162613 0.2187368078743274 0  0.8061636571464289 0.8703766630361714 0  0.7008230445061776 0.3478568388444072 0  0.8638466246958771 0.3147095987735538 0  0.204801534004265 0.8789209409594009 0  0.2449006736431132 0.9424182882803838 0  0.7611268409371427 0.2643056884799992 0  0.7552800864046191 0.7678006649959446 0  0.5983639638906616 0.864113435029236 0  0.1956559506814437 0.577281203577426 0  0.3527670268164207 0.1320469097565204 0  0.7530364577483248 0.3262386077083089 0  0.4535919187979363 0.4690107087451527 0  0.8824869791666666 0.8336588541666666 0  0.8814453125 0.9451171875 0  0.5582987942628019 0.622421666543858 0  0.6817532446064828 0.6939001801354731 0  0.3830295138888889 0.9450968952922078 0  0.4140603937012541 0.05211333372716105 0  0.5535864501303013 0.3060591985391672 0  0.6560130086346878 0.2729726562211558 0  0.890203140221684 0.5948314305427268 0  0.7043857725999024 0.593980890020804 0  0.5105843922695152 0.8016828014338627 0  0.05365910753708378 0.7315110031682004 0  0.616904573672261 0.4621186633436136 0  0.5338511646455415 0.387875898899613 0  0.5231769258947843 0.4477682463140762 0  0.650302973237622 0.7370722302085519 0  0.3927483139621257 0.4662414504529014 0  0.8034595960585199 0.4972538342758211 0  0.7738337841682438 0.9496376207663251 0  0.7193737507158268 0.954685447650112 0  0.482525916480686 0.5528257169991676 0  0.2533501157346781 0.2809495420003238 0  0.3118487924482243 0.5702930126570319 0  0.6257598847669529 0.4104163315430518 0  0.1354166666666667 0.1955605158730158 0  0.04166666666666666 0.15625 0  0.3956448985530264 0.6174149462065157 0  0.8102897701818546 0.3938784238208349 0  0.2641154190013625 0.8344469561943118 0  0.642852220770013 0.5068794586563659 0  0.05271458179508221 0.355846947336007 0  0.7021551360070266 0.8921457280225779 0  0.5692125776683765 0.1328512638850284 0  0.5206162811937602 0.04865158770992991 0  0.6001838442201555 0.04540556991297563 0  0.2597716608242787 0.4118346398477178 0  0.4040584599473195 0.3179589136784675 0  0.1480337679295207 0.8941560631483065 0  0.1344356707112281 0.9466251177415842 0  0.7114696411829317 0.4983917389078826 0  0.7585704698442475 0.5751926345944629 0  0.2189131956390871 0.04022068508159698 0  0.2476935455192043 0.1123642267635843 0  0.185995005654517 0.1365524537205238 0  0.6223414373308711 0.643380839165121 0  0.5732602596637543 0.7190051747306219 0  0.268358222364537 0.6586246524467934 0  0.3265879848129173 0.2369791782191225 0  0.1267095595787346 0.7034787238999181 0  0.1115202922226038 0.6421997933884982 0  0.3128688392940203 0.07260997451790079 0  0.550724900485678 0.9253360991633187 0  0.7142608810459105 0.2384904702214873 0  0.7045869185243887 0.1871826897887429 0  0.890625 0.734375 0  0.953125 0.765625 0  0.2111812642821677 0.8286209446459138 0  0.9590293078204457 0.09375 0  0.953431269039847 0.1435719386408004 0  0.04097069217955424 0.90625 0  0.04656873096015299 0.8564280613591996 0  0.1078743037981226 0.8541621766048062 0  0.8921256962018773 0.1458378233951939 0  0.8521576979194619 0.1084496634207678 0  0.8655663982740958 0.05464346096571447 0  0.04005659640905543 0.09375 0  0.1001448316533417 0.04246776244228261 
[...]
<PointData  Scalars="f_1962574"> 
<DataArray  type="Float64"  Name="f_1962574"  format="ascii">1.1534690689267046e+00  9.9994154380517908e-01  1.0001130914440990e+00  9.0572067398098943e-01  1.0155820547760883e+00  1.0028501581956606e+00  2.6172056220808497e+00  9.9880710444649967e-01  1.0235252061399809e+00  9.9992320013105573e-01  1.0027420939424938e+00  4.1567957309551415e+00  9.9737915584168713e-01  1.0001611707062315e+00  1.0031246465345656e+00  1.0201831030138910e+00  2.1810772181668261e+00  1.1210310455147954e+00  9.3358552427255437e-01  9.5405181803520922e-01  1.2285996564569870e+00  8.8694760451681753e-01  1.0036241218941002e+00  9.3459975935608841e-01  1.0460797098625738e+00  1.1380709786755094e+00  8.9496440824754375e-01  1.3324566588242936e+00  1.0343130903828435e+00  1.0639145047024587e+00  1.2121446451457341e+00  1.1714004917409768e+00  9.0663247821450188e-01  1.2257181383553635e+00  1.0284921807011982e+00  9.2095883797898648e-01  1.0622835273652824e+00  9.4723379679214259e-01  1.1102018496754271e+00  1.2641370335046160e+00  9.8695124925533217e-01  1.2251071142316179e+00  1.0000008229126069e+00  9.9994701611087267e-01  1.0139245708749816e+00  1.1829315093516839e+00  8.9168946710104402e-01  9.0729980258824949e-01  1.1177906746669379e+00  1.0109192261043685e+00  1.0107065733211194e+00  3.4859093170098063e+00  1.0000024497764755e+00  9.9965837691574833e-01  9.9887184947290719e-01  1.0000778829319334e+00  3.3814969325648874e+00  1.0000163805904316e+00  1.0158223557378867e+00  2.2050138773127510e+00  1.0047893655481621e+00  9.5663248169652026e-01  9.6612136406911653e-01  1.2924154933524374e+00  9.8303708729382422e-01  9.5576559442199915e-01  8.8571724229656801e-01  1.5310837845204786e+00  1.1128721550604901e+00  1.1762237505633173e+00  1.0866612520149466e+00  1.0744547370492625e+00  9.4722316187198941e-01  9.5920064816744532e-01  9.6282785315830810e-01  9.2735851387404922e-01  1.1778503249438912e+00  6.9046511087549356e-01  1.3963066385968632e+00  1.0240634062981220e+00  9.7956985726772960e-01  9.9503491457920901e-01  1.2351824700121197e+00  1.1219402377573686e+00  1.0915724082723299e+00  1.0753258528470704e+00  1.4714985523404438e+00  1.0391772181617320e+00  1.0225301021981170e+00  1.0342441479282971e+00  1.0532332080344062e+00  1.0726832985028938e+00  1.1530222237224470e+00  1.0996201991782497e+00  1.9741465588930627e+00  9.2475770798959689e-01  9.2704453633895123e-01  1.1434317657779822e+00  1.1017143710120589e+00  2.1427872876526162e+00  1.0720681404937942e+00  1.0690090461352444e+00  1.0373245783891474e+00  1.1024289844712862e+00  1.0822406357385337e+00  9.2561463343352357e-01  9.9967750298898750e-01  8.8928350006871038e-01  1.2699825229337247e+00  2.1291836453494106e+00  9.0105889279203022e-01  9.9911771732469956e-01  9.2464334050187480e-01  9.1591579066304651e-01  9.3643984631726807e-01  9.8672332275576347e-01  1.0059295973777256e+00  1.1981702343317029e+00  1.1769951711413529e+00  1.1843010521196571e+00  8.7842519629925941e-01  2.1814911753190676e+00  2.1224408670783923e+00  9.5913651201475947e-01  1.0291159357067854e+00  9.5148881155819875e-01  9.0620599322394169e-01  2.3574756190990254e+00  1.5563317288756717e+00  1.0365249391877114e+00  9.4974748889780980e-01  1.1538504421485591e+00  9.0288516662280816e-01  1.0412554801527862e+00  1.0510492820820985e+00  1.0149911917557513e+00  9.6706836390871376e-01  9.4102527481268472e-01  1.0453960247376302e+00  9.1061676774157874e-01  9.7946637246439316e-01  1.0109127876305857e+00  1.0140637290769319e+00  1.0041791727433251e+00  1.2035528714042711e+00  1.1895930445516807e+00  6.0036441292309228e-01  1.5865267532904623e+00  9.9549217167310189e-01  1.0765332127114147e+00  1.0767985088483041e+00  9.5515378428901454e-01  1.0062929054415179e+00  1.5753828378809984e+00  9.7894960458451674e-01  9.6023893265662263e-01  1.1478797216358338e+00  1.0615416623118530e+00  1.0068301209563448e+00  1.2045040892429526e+00  1.1259880938710476e+00  1.0727520074631773e+00  1.0734083333662643e+00  9.9992951986999523e-01  9.9999402128116133e-01  2.1466445823868372e+00  1.0654390571463401e+00  9.2587687620389147e-01  8.9397209776144237e-01  8.9122249703735479e-01  9.7177703943598748e-01  9.3874105623265292e-01  1.1701967587421280e+00  9.9999464391686110e-01  1.0002609719928404e+00  1.1107813867206033e+00  9.2655070280027751e-01  9.7175783235773039e-01  8.8159306631105772e-01  8.9205209749275005e-01  1.0667265168151687e+00  9.4968183555409613e-01  1.8331279071668503e+00  1.1161400777327604e+00  3.8196019123147731e+00  4.0827287312925966e+00  1.0018324880366813e+00  2.9525649836538617e+00  1.0000355595127908e+00  1.0001643152520985e+00  1.0008567883956567e+00  9.9999891453827916e-01  1.0144402382367685e+00  1.0006874459155088e+00  9.9981075773283590e-01  9.9941145087689309e-01  9.9777337958710977e-01  9.9882888591748353e-01  1.0129840276091830e+00  1.0282238223902749e+00  1.2414814596685673e+00  9.3811133915337241e-01  5.9618636101166544e-01  9.9076669264701134e-01  9.3566200362759810e-01  9.1456971210461702e-01  1.0428782074213643e+00  1.2571745243836625e+00  9.7817921983013978e-01  9.5851397606914912e-01  1.2575981443415758e+00  1.3824710880097413e+00  1.1627508772254866e+00  1.1738122446282915e+00  1.1223429111512271e+00  9.1938239837313462e-01  1.0893852693467163e+00  9.4746568324391200e-01  1.0610172628579999e+00  1.2549182771306782e+00  1.1418748491794530e+00  1.1144832872070327e+00  1.4515016936876168e+00  2.4139533053942044e+00  1.1159491487554916e+00  1.1175673955560859e+00  1.2086238871954968e+00  8.8236376079521017e-01  9.6427336163384980e-01  1.1434606074909228e+00  9.8789043790571018e-01  8.5635366744742814e-01  1.0959559337488909e+00  1.0497416915535773e+00  1.1278271701505460e+00  2.2958427450618277e+00  9.9553586651049819e-01  1.0528316209138875e+00  1.0976029202648920e+00  1.2300529958895199e+00  1.2027423315980510e+00  1.0374676221765895e+00  9.8354455520487871e-01  1.1267958587835372e+00  1.0499915132219906e+00  1.0451948618426319e+00  1.0846735477653653e+00  9.4561792723655613e-01  1.2314414525038377e+00  1.6808059909919688e+00  1.7252414547039296e+00  1.0013637756087184e+00  9.1380196840933459e-01  8.9941145240270504e-01  1.1230305519628230e+00  9.4112350457648430e-01  9.8138108062904583e-01  9.3263562128176758e-01  1.1741791683379827e+00  1.1962770997117516e+00  1.1543731389461314e+00  9.4860085981324693e-01  1.3487581097546739e+00  1.0332650158196117e+00  1.0140585883008371e+00  1.0233348267315754e+00  8.9325381330128040e-01  9.6229077893814252e-01  1.5132255166758037e+00  2.1474595653405215e+00  1.2051989073012379e+00  1.2458424189017387e+00  9.8081931922958310e-01  9.5449548059214662e-01  9.4900407427196920e-01  1.1026008633462769e+00  1.0266192247971500e+00  9.0584240001070415e-01  9.3846901104387170e-01  9.4709683997287852e-01  9.1706218103100912e-01  9.7296650549928088e-01  1.6311267792680448e+00  1.1012817228762337e+00  1.0811884566233807e+00  1.2386168157010489e+00  1.1786141397434635e+00  1.1842039872890953e+00  1.0093090066285793e+00  1.0194348586443491e+00  1.2232661754186687e+00  1.1127815468264837e+00  1.2253532855742015e+00  1.0427870527790164e+00  1.0415766103679460e+00  1.0201185281099712e+00  9.9130548607101365e-01  9.8982668667856799e-01  1.0065504264568366e+00  2.0304060558296104e+00  1.4401114252169314e+00  9.9741067293180274e-01  1.0448212582811940e+00  1.0125216592527266e+00  9.8993385378739251e-01  9.7397969968178066e-01  1.0717928957029874e+00  1.1591401057142319e+00  9.0343061765973742e-01  9.6876301682048460e-01  1.0391103369912214e+00  1.0253434015080773e+00  1.0134492159180046e+00  1.0461213954191795e+00  9.6134782521008244e-01  1.0016809095230093e+00  9.9270371791348599e-01  1.0935894320004789e+00  1.2648308234777630e+00  1.0676668584835072e+00  1.1289733984863553e+00  1.0715314322153033e+00  8.9733883129585468e-01  9.3954741907952355e-01  9.2340163482791249e-01  1.0946389635831166e+00  9.9140731744409671e-01  1.1418938066331852e+00  1.1616382457169219e+00  9.1390400619595413e-01  1.0631386222696522e+00  9.7152269686110926e-01  1.0365184211795933e+00  8.8177293866431317e-01  1.2215049894486816e+00  1.0829145900819663e+00  1.0341775670180973e+00  1.0760792751235311e+00  9.9327607264329731e-01  1.1405295213305342e+00  2.3729604350783835e+00  9.0407129835718369e-01  9.5664487412192944e-01  1.0818026254246695e+00  1.1834271567648116e+00  9.2277275046902363e-01  1.0228662041015422e+00  1.1163965579965003e+00  1.2590343506028845e+00  1.0225476110436464e+00  1.0961621407887252e+00  1.1228089039801497e+00  1.0818593062387005e+00  2.9207207096238359e+00  9.1185581091493995e-01  9.2678639640745730e-01  9.4300561801390648e-01  9.2001985141111842e-01  9.6835945799124745e-01  9.5946919305115019e-01  1.0696460103457333e+00  1.0579667832218187e+00  2.1932387867714387e+00  1.5192745347540528e+00  7.3801559928803373e-01  1.2515569965121343e+00  1.2603982736146027e+00  1.0425897432554674e+00  1.7298486113155371e+00  1.1911281585889386e+00  1.0586552944538139e+00  9.5905217816859956e-01  1.0406040780562054e+00  1.0564001071095328e+00  9.6870904074422259e-01  9.6288650406714382e-01  1.0084505808476227e+00  2.0146445965990796e+00  8.9670633775012032e-01  9.1998751877534868e-01  9.4184255897406055e-01  9.5085481449459019e-01  1.1320361727703323e+00  1.2205097240765204e+00  9.5058956736787026e-01  9.5458815431127242e-01  1.1071332397270739e+00  9.1453491214727545e-01  9.3875041895425171e-01  1.0153286341470089e+00  1.0045656480939633e+00  1.0187760475087568e+00  1.5326111217591347e+00  9.1937825883432400e-01  9.2960452750158828e-01  1.0074325319566495e+00  1.0873400864594163e+00  1.2265284102871532e+00  9.7490264337860733e-01  9.5831718895253093e-01  1.1959296078027379e+00  1.1685203488140434e+00  1.0181258096385384e+00  1.2108084843848410e+00  1.7480747663506699e+00  8.9222161723257920e-01  9.0011631643183565e-01  9.9984745893453986e-01  9.2199175587512838e-01  8.9173086842429317e-01  9.2811693637225889e-01  1.1961714158807746e+00  9.1565810738294673e-01  9.3229342448816033e-01  8.8477210542952767e-01  4.1469222101534120e+00  9.3777523762956194e-01  9.8963007774037814e-01  9.4078077150237749e-01  1.0095874397092399e+00  9.9951728330953360e-01  9.6616886199767138e-01  1.1398874561442442e+00  1.3333690268217804e+00  8.8130775805881645e-01  8.8014429662143923e-01  9.7821047769714242e-01  1.0500931574657468e+00  1.1698770621602088e+00  1.1290435597698634e+00  1.1296104071561988e+00  1.0043509659675198e+00  1.0609935827723143e+00  9.8656132384934048e-01  1.9367705658164842e+00  2.9197237446097950e+00  1.0154959546694085e+00  1.0791618985536497e+00  1.0184797526247025e+00  9.8573814082089428e-01  1.0638867412165336e+00  1.0502584929733914e+00  9.6975984198610321e-01  9.7113180985294223e-01  1.0566510033946748e+00  6.4723061585653152e-01  9.0586654121851862e-01  1.1140537840517353e+00  1.0519509522954771e+00  9.7734280266363227e-01  9.9996551508298115e-01  9.6772406001265687e-01  9.4140788400754627e-01  1.3609819719317016e+00  1.0499297352431587e+00  1.2144514907943107e+00  1.1070034281822791e+00  3.1262703798701765e+00  9.1131543430859352e-01  9.7295846291978461e-01  9.6313186813154605e-01  1.0792814781350026e+00  9.0076066838506785e-01  8.8162018135021336e-01  1.7076937934063408e+00  8.9243477792081705e-01  1.0003135412493755e+00  1.0178546126640522e+00  1.0622294485439074e+00  1.0424904149889400e+00  9.5183013635522140e-01  9.5287747885905283e-01  9.9996615100774167e-01  1.0220899172318574e+00  9.8975423680719254e-01  9.8439920895916388e-01  1.0070425853873513e+00  9.7595116796058445e-01  3.8962735660730812e+00  1.3205284652665212e+00  1.5010233249378520e+00  1.7401061194477649e+00  8.8054705237850162e-01  2.1484246571397176e+00  1.0445183629077650e+00  9.9404928628769307e-01  8.9463939926452252e-01  9.4017222977888493e-01  1.3156364316946942e+00  8.9335073725738101e-01  9.1340426829964239e-01  1.2692385005673139e+00  1.1032724027568754e+00  1.0002365114180050e+00  1.1658052090845041e+00  1.2247512828217153e+00  1.2933216625272699e+00  1.0091882337492517e+00  9.4301536788516127e-01  1.1059568478856632e+00  1.1456064758623827e+00  1.0147586786331138e+00  1.0001465888026648e+00  1.0000823922217690e+00  1.0228612882295558e+00  2.5443292856942330e+00  9.9214993755812586e-01  9.6776938968421788e-01  9.7780580788973814e-01  1.1625118014596822e+00  1.8694712808754530e+00  9.7539543447850852e-01  1.1292837714318900e+00  8.8606054806232493e-01  1.2144025145533155e+00  9.9831760737234465e-01  1.0776817495832289e+00  3.0888936015356703e+00  3.1373117083925122e+00  1.0046829219053626e+00  9.6608623016225048e-01  1.0522801173463858e+00  1.0778811311820162e+00  1.4904103935772868e+00  9.7692963760320195e-01  1.1828966765475106e+00  1.1813210245781209e+00  1.2144957631613384e+00  9.1440212435799273e-01  1.0395042390821758e+00  1.2089598259921077e+00  1.0948356141298941e+00  1.0104586688335386e+00  9.8824610249517608e-01  9.4568556121677361e-01  1.0000505678318319e+00  1.1521657665848637e+00  1.1276947852901444e+00  1.1649015016889019e+00  9.1918505375367499e-01  1.1088741666340189e+00  1.2449855689705083e+00  1.1160476311910794e+00  9.9979794188226045e-01  1.2441129216464717e+00  8.9782249917822121e-01  8.8666703952268677e-01  1.1407440500617918e+00  1.8534522022173985e+00  1.3665187665195218e+00  9.3842099648709887e-01  1.0147492059391177e+00  1.1816682896489470e+00  1.1151765990936460e+00  7.8274417572596677e-01  1.0521131298100010e+00  1.0768528273034714e+00  1.0269602295872224e+00  1.2468761934808783e+00  1.0275919547066341e+00  1.0677798678175496e+00  9.6214463088451063e-01  1.1966072077538095e+00  1.7975223565585987e+00  9.4430896684828491e-01  9.5576040117019467e-01  9.6749219967235656e-01  9.6636156606613532e-01  1.0011503986872219e+00  1.1896989770169490e+00  9.9970097553162451e-01  1.0755497371228393e+00  1.0298456838537324e+00  1.5126977553835157e+00  1.0972856685641599e+00  9.9990685101909726e-01  1.1578582839676830e+00  8.9000182220348423e-01  1.0821562546635202e+00  1.4752761328895350e+00  1.1400784016316861e+00  9.2419679075790440e-01  8.8690896570786859e-01  9.8835232243393445e-01  1.1639917797338533e+00  1.0397829041579014e+00  1.1007356398195574e+00  1.0935179713465566e+00  1.0217872020464258e+00  9.5217962840706738e-01  1.0279413943577573e+00  9.0745326567328488e-01  8.8503019256463167e-01  1.0963275395327492e+00  8.8685466101925592e-01  1.0335517251202686e+00  9.8192103288617127e-01  1.1996066314133440e+00  1.1591740860199657e+00  9.0704977676717413e-01  9.6823892593565886e-01  9.8453695706231548e-01  9.6410104494600057e-01  1.0521664046135939e+00  1.0003891354931873e+00  1.0143200710915958e+00  1.0598279277640164e+00  8.9092164201185298e-01  1.1520995163883925e+00  9.8163112840970257e-01  1.1361999266060476e+00  1.1242546932959581e+00  1.0126009865684764e+00  1.0577761462052149e+00  1.1518902878832633e+00  1.0490414695891235e+00  9.0350483525589997e-01  1.3234900396854912e+00  1.1517062784208973e+00  1.0731901173311089e+00  1.9017142531350522e+00  1.5279241719547594e+00  1.0000655335279662e+00  1.0000339073068829e+00  1.0230997034741658e+00  1.0152635677010453e+00  5.5852725890024923e-01  9.8972936706381975e-01  1.0002103324335867e+00  1.0022518594975596e+00  1.0627162175699176e+00  9.1563738522959137e-01  9.2223322476717884e-01  9.7957424334528154e-01  1.0237855798884092e+00  9.3320165894875051e-01  1.1407312904508016e+00  2.2380106515105984e+00  9.8921000498892675e-01  9.7968194031241151e-01  9.8563869899581014e-01  1.1810200377479889e+00  1.0091746160617105e+00  9.3160390905935475e-01  1.0243465592779268e+00  1.0765519889706263e+00  1.2228498299812927e+00  1.1249221584485585e+00  1.2850527876681730e+00  9.5821503065834990e-01  9.4387740463829894e-01  1.1550627797162842e+00  1.0308307030535895e+00  1.1285393750084787e+00  9.5775835237899942e-01  1.1293125590005875e+00  1.0610935206095766e+00  1.1434271364117934e+00  1.0336420008373959e+00  9.5511305306341754e-01  2.1132517227972225e+00  1.0850924211339117e+00  1.0151228985677221e+00  6.9786720154607407e-01  2.2586994562429115e+00  1.7320648903213658e+00  1.1190154784813304e+00  1.5346858365311897e+00  2.4679306935334178e+00  9.9885789426342220e-01  3.9734858125735655e+00  1.0059496043626477e+00  1.0047556813670708e+00  1.0087960946346324e+00  1.0022540477268786e+00  1.0016190088693018e+00  1.0039589505216351e+00  9.9964751769778060e-01  9.9954105046993114e-01  9.9949651441499476e-01  9.9995161454476289e-01  1.0084633670169156e+00  9.9584596182494112e-01  1.0018423916069843e+00  2.7843833322621787e+00  1.0001143495998355e+00  1.0269713614954461e+00  9.9976770068553522e-01  1.0014797446698678e+00  1.0128147926687359e+00  9.9992505665129383e-01  9.9995327869931250e-01  2.1227705710754297e+00  2.7565607694510925e+00  9.7956671730967693e-01  9.0987331367014024e-01  7.2093858339802219e-01  9.9926050579183312e-01  9.9997691915507358e-01  3.5761327711971331e+00  1.0128633283017994e+00  1.0249891394543196e+00  1.1297163983972278e+00  1.3132959404415991e+00  9.3466246016764942e-01  3.0593663661443857e+00  1.0621627289579569e+00  2.2747458808660586e+00  9.1187323572654500e-01  9.2148643284851806e-01  9.2718186822394144e-01  1.2555555273827876e+00  9.8806932314587537e-01  9.7881963515696180e-01  1.1100515471949755e+00  9.3159690918264071e-01  9.3377707352532102e-01  9.6376263401013196e-01  9.2700636879392007e-01  9.5172237517590652e-01  9.5904254860948102e-01  1.1399283686063597e+00  1.2444663466590291e+00  1.1976290893623709e+00  9.0667333383390236e-01  1.0798321523552916e+00  9.1610046697198211e-01  9.6575463592362143e-01  9.0017236086399033e-01  1.0617284254924044e+00  1.0355579743225425e+00  1.0478367511168725e+00  1.0525073604312809e+00  9.0030150631558259e-01  9.2705462732559041e-01  1.0231300133865635e+00  1.0732858088171371e+00  1.1087291896807998e+00  8.9448409552336794e-01  9.3235977068769083e-01  1.1277406206210403e+00  1.0942301071430443e+00  9.0501563671294283e-01  1.1622329045289774e+00  9.4151856355915164e-01  1.1184856417400082e+00  1.2041416689286322e+00  1.2427161255751846e+00  9.1231707678160245e-01  9.2206135402834766e-01  1.2494992053933756e+00  1.2432461123666327e+00  1.2657065418245650e+00  1.3300114150440354e+00  9.5991859822319614e-01  1.0744791568633134e+00  9.4435907066795388e-01  1.0169447004712373e+00  9.9265951756104420e-01  1.7419210136779222e+00  1.0999062792850778e+00  1.1029726155914594e+00  1.1147809063775580e+00  1.1036206435627360e+00  1.1483900911276002e+00  1.0290053612493129e+00  9.0521641181671109e-01  9.0310194098672913e-01  9.3191171426496777e-01  1.1734234266927350e+00  9.9228970838937758e-01  9.9862190759457448e-01  1.5718223310048500e+00  1.5803314582292696e+00  1.7267928774904739e+00  1.2813771546637278e+00  1.4242525544448761e+00  1.4940827053917729e+00  1.1387558150913002e+00  9.6174351146216808e-01  1.2341778271833161e+00  1.2634200304186218e+00  1.0313019948281301e+00  9.4032072560139512e-01  8.9120153202019414e-01  9.0848100078616745e-01  1.1579669792209524e+00  1.1941293421754624e+00  9.4595396717503855e-01  9.3021471225920682e-01  1.5848809223446443e+00  1.2416559783944849e+00  9.2554654917747647e-01  1.0076288721455331e+00  9.0373627784853861e-01  1.0537283721891124e+00  1.0234358194807771e+00  1.0856825680969295e+00  1.3398109692192375e+00  1.1247864808010366e+00  1.1114871799279389e+00  2.6736082416906046e+00  8.8502733439985803e-01  1.0303723199320347e+00  1.0749106394681454e+00  9.3548964644109178e-01  8.8076494156143503e-01  1.1558705352585381e+00  9.6104283164717785e-01  8.7924173727103472e-01  8.8248635233083772e-01  1.8919015409159450e+00  2.1483472483877475e+00  3.3988487688602640e+00  1.0284327521436061e+00  1.0351011389647633e+00  1.0954040649744410e+00  3.1161623175535489e+00  1.2613734569797868e+00  1.1189320230279425e+00  1.0036428531254442e+00  1.0479359386393232e+00  1.5952989273609346e+00  9.4887528099862262e-01  1.2277783745671225e+00  1.0268262546197493e+00  6.4816864455201073e-01  1.0010723712343550e+00  1.7169463254812467e+00  1.3224913